# Force bins 
# bins       : 20
# start      : -2.699319e-01
# delta      : 5.030636e-02
# direction  : (1.000000e+00 0.000000e+00 0.000000e+00)
# x co-ords  :	-2.196255e-01	-1.693192e-01	-1.190128e-01	-6.870643e-02	-1.840006e-02	3.190630e-02	8.221266e-02	1.325190e-01	1.828254e-01	2.331318e-01	2.834381e-01	3.337445e-01	3.840508e-01	4.343572e-01	4.846636e-01	5.349699e-01	5.852763e-01	6.355827e-01	6.858890e-01	7.361954e-01
# y co-ords  :	-0.000000e+00	-0.000000e+00	-0.000000e+00	-0.000000e+00	-0.000000e+00	0.000000e+00	0.000000e+00	0.000000e+00	0.000000e+00	0.000000e+00	0.000000e+00	0.000000e+00	0.000000e+00	0.000000e+00	0.000000e+00	0.000000e+00	0.000000e+00	0.000000e+00	0.000000e+00	0.000000e+00
# z co-ords  :	-0.000000e+00	-0.000000e+00	-0.000000e+00	-0.000000e+00	-0.000000e+00	0.000000e+00	0.000000e+00	0.000000e+00	0.000000e+00	0.000000e+00	0.000000e+00	0.000000e+00	0.000000e+00	0.000000e+00	0.000000e+00	0.000000e+00	0.000000e+00	0.000000e+00	0.000000e+00	0.000000e+00
# Time       	forces(0)[pressure,viscous,porous]	moments(0)[pressure,viscous,porous]	forces(1)[pressure,viscous,porous]	moments(1)[pressure,viscous,porous]	forces(2)[pressure,viscous,porous]	moments(2)[pressure,viscous,porous]	forces(3)[pressure,viscous,porous]	moments(3)[pressure,viscous,porous]	forces(4)[pressure,viscous,porous]	moments(4)[pressure,viscous,porous]	forces(5)[pressure,viscous,porous]	moments(5)[pressure,viscous,porous]	forces(6)[pressure,viscous,porous]	moments(6)[pressure,viscous,porous]	forces(7)[pressure,viscous,porous]	moments(7)[pressure,viscous,porous]	forces(8)[pressure,viscous,porous]	moments(8)[pressure,viscous,porous]	forces(9)[pressure,viscous,porous]	moments(9)[pressure,viscous,porous]	forces(10)[pressure,viscous,porous]	moments(10)[pressure,viscous,porous]	forces(11)[pressure,viscous,porous]	moments(11)[pressure,viscous,porous]	forces(12)[pressure,viscous,porous]	moments(12)[pressure,viscous,porous]	forces(13)[pressure,viscous,porous]	moments(13)[pressure,viscous,porous]	forces(14)[pressure,viscous,porous]	moments(14)[pressure,viscous,porous]	forces(15)[pressure,viscous,porous]	moments(15)[pressure,viscous,porous]	forces(16)[pressure,viscous,porous]	moments(16)[pressure,viscous,porous]	forces(17)[pressure,viscous,porous]	moments(17)[pressure,viscous,porous]	forces(18)[pressure,viscous,porous]	moments(18)[pressure,viscous,porous]	forces(19)[pressure,viscous,porous]	moments(19)[pressure,viscous,porous]
1.582813e-02	((6.763746e-04 -3.865695e-03 8.228245e-12) (1.492219e-04 9.496661e-05 -1.755379e-12) (0.000000e+00 0.000000e+00 0.000000e+00)) ((1.419172e-08 1.251491e-08 8.214638e-04) (-3.901680e-11 4.263588e-10 -2.479528e-05) (0.000000e+00 0.000000e+00 0.000000e+00))	((1.916859e-03 -2.357302e-02 4.357457e-12) (2.450937e-04 9.489345e-05 3.746182e-12) (0.000000e+00 0.000000e+00 0.000000e+00)) ((-3.967084e-09 2.062488e-08 4.448677e-03) (9.324645e-10 -3.497144e-09 -2.257198e-05) (0.000000e+00 0.000000e+00 0.000000e+00))	((3.515361e-03 -5.238011e-02 -7.630605e-11) (3.368646e-04 9.102349e-05 -4.946395e-11) (0.000000e+00 0.000000e+00 0.000000e+00)) ((1.780627e-08 3.407852e-08 8.400997e-03) (8.892660e-10 -1.285644e-09 -1.806522e-05) (0.000000e+00 0.000000e+00 0.000000e+00))	((5.053663e-03 -8.781000e-02 5.001497e-11) (4.711258e-04 8.941311e-05 -9.644082e-11) (0.000000e+00 0.000000e+00 0.000000e+00)) ((2.499961e-08 3.035096e-08 1.155553e-02) (1.694275e-09 -9.929378e-09 -1.360692e-05) (0.000000e+00 0.000000e+00 0.000000e+00))	((6.166762e-03 -1.276134e-01 5.282335e-11) (6.115615e-04 8.895492e-05 -7.217548e-11) (0.000000e+00 0.000000e+00 0.000000e+00)) ((-6.141221e-08 2.005837e-08 1.318159e-02) (1.703237e-09 -8.439654e-09 -7.560014e-06) (0.000000e+00 0.000000e+00 0.000000e+00))	((6.540134e-03 -1.705034e-01 5.216383e-11) (6.936350e-04 8.862573e-05 -2.581394e-11) (0.000000e+00 0.000000e+00 0.000000e+00)) ((-3.013152e-07 1.096528e-08 1.285000e-02) (1.416891e-09 8.149406e-09 -1.393311e-06) (0.000000e+00 0.000000e+00 0.000000e+00))	((6.047517e-03 -2.158477e-01 7.844264e-11) (7.153523e-04 8.991855e-05 7.852352e-12) (0.000000e+00 0.000000e+00 0.000000e+00)) ((2.055898e-07 -1.069469e-08 1.029271e-02) (2.432484e-09 2.858470e-08 6.335279e-06) (0.000000e+00 0.000000e+00 0.000000e+00))	((4.437970e-03 -2.636892e-01 -9.786483e-11) (7.534897e-04 9.391376e-05 1.900368e-11) (0.000000e+00 0.000000e+00 0.000000e+00)) ((-9.100903e-07 6.004451e-08 5.229313e-03) (4.072068e-09 6.411386e-08 1.739555e-05) (0.000000e+00 0.000000e+00 0.000000e+00))	((1.921436e-03 -3.138697e-01 1.705709e-10) (8.247351e-04 9.854714e-05 1.807085e-10) (0.000000e+00 0.000000e+00 0.000000e+00)) ((-1.483163e-06 1.621363e-07 -2.573101e-03) (7.130711e-09 1.446793e-07 2.758302e-05) (0.000000e+00 0.000000e+00 0.000000e+00))	((-1.172174e-03 -3.645768e-01 -1.412524e-10) (8.964661e-04 1.012651e-04 2.055319e-10) (0.000000e+00 0.000000e+00 0.000000e+00)) ((-1.761829e-06 1.796302e-07 -1.298721e-02) (1.011083e-08 1.794665e-07 3.606903e-05) (0.000000e+00 0.000000e+00 0.000000e+00))	((-4.920413e-03 -4.165500e-01 -1.432899e-10) (9.670538e-04 1.021788e-04 2.063470e-10) (0.000000e+00 0.000000e+00 0.000000e+00)) ((-1.915373e-06 1.936757e-07 -2.625223e-02) (9.135487e-09 1.732839e-07 4.232825e-05) (0.000000e+00 0.000000e+00 0.000000e+00))	((-9.343016e-03 -4.698446e-01 -1.546824e-10) (1.027628e-03 9.831619e-05 2.526584e-10) (0.000000e+00 0.000000e+00 0.000000e+00)) ((-1.348875e-06 9.737184e-08 -4.255852e-02) (2.933094e-08 1.840511e-07 4.586970e-05) (0.000000e+00 0.000000e+00 0.000000e+00))	((-1.434163e-02 -5.218751e-01 -2.028284e-10) (1.070298e-03 9.418807e-05 2.198142e-10) (0.000000e+00 0.000000e+00 0.000000e+00)) ((-2.341244e-06 2.890281e-07 -6.111325e-02) (8.947850e-09 1.480059e-07 4.784388e-05) (0.000000e+00 0.000000e+00 0.000000e+00))	((-1.998079e-02 -5.743774e-01 -2.175817e-10) (1.110363e-03 7.921578e-05 3.344193e-11) (0.000000e+00 0.000000e+00 0.000000e+00)) ((2.063690e-06 -6.086339e-07 -8.249950e-02) (2.497454e-08 1.872211e-07 4.405088e-05) (0.000000e+00 0.000000e+00 0.000000e+00))	((-2.609428e-02 -6.263955e-01 -1.937148e-10) (1.143392e-03 6.491902e-05 3.694683e-11) (0.000000e+00 0.000000e+00 0.000000e+00)) ((3.429081e-06 -8.867263e-07 -1.063625e-01) (2.628772e-08 1.926515e-07 3.906478e-05) (0.000000e+00 0.000000e+00 0.000000e+00))	((-3.279571e-02 -6.790286e-01 -1.855226e-10) (1.181943e-03 4.573280e-05 2.654044e-11) (0.000000e+00 0.000000e+00 0.000000e+00)) ((4.469409e-06 -1.117877e-06 -1.332332e-01) (3.378748e-08 2.088156e-07 3.028924e-05) (0.000000e+00 0.000000e+00 0.000000e+00))	((-4.004256e-02 -7.335042e-01 -1.544006e-10) (1.225184e-03 2.236333e-05 -3.685530e-11) (0.000000e+00 0.000000e+00 0.000000e+00)) ((2.365964e-06 -5.300708e-07 -1.638903e-01) (3.883705e-08 2.461150e-07 1.795241e-05) (0.000000e+00 0.000000e+00 0.000000e+00))	((-4.736491e-02 -7.921322e-01 -1.200095e-10) (1.275420e-03 -7.054713e-06 -3.407296e-11) (0.000000e+00 0.000000e+00 0.000000e+00)) ((1.182751e-06 -1.933958e-07 -1.999199e-01) (3.573610e-08 2.302382e-07 1.186405e-06) (0.000000e+00 0.000000e+00 0.000000e+00))	((-5.526909e-02 -8.623126e-01 1.417590e-10) (1.358354e-03 -4.823694e-05 -1.873550e-11) (0.000000e+00 0.000000e+00 0.000000e+00)) ((1.615935e-06 -2.989938e-07 -2.466610e-01) (2.858324e-08 2.119933e-07 -2.273520e-05) (0.000000e+00 0.000000e+00 0.000000e+00))	((-6.039424e-02 -9.613437e-01 -1.994508e-09) (1.582894e-03 -1.066899e-04 -3.011912e-11) (0.000000e+00 0.000000e+00 0.000000e+00)) ((3.705995e-06 -1.170903e-06 -3.174479e-01) (3.012067e-08 2.121153e-07 -5.158253e-05) (0.000000e+00 0.000000e+00 0.000000e+00))
1.592084e-02	((6.806678e-04 -3.879557e-03 8.493985e-12) (1.491906e-04 9.473000e-05 -1.699881e-12) (0.000000e+00 0.000000e+00 0.000000e+00)) ((1.349088e-08 1.466856e-08 8.248335e-04) (-3.696121e-11 4.276524e-10 -2.472025e-05) (0.000000e+00 0.000000e+00 0.000000e+00))	((1.921801e-03 -2.358827e-02 4.547960e-12) (2.450518e-04 9.465465e-05 3.844853e-12) (0.000000e+00 0.000000e+00 0.000000e+00)) ((-1.775621e-10 1.480443e-08 4.452472e-03) (9.364293e-10 -3.491170e-09 -2.248867e-05) (0.000000e+00 0.000000e+00 0.000000e+00))	((3.523419e-03 -5.238823e-02 -7.569944e-11) (3.367894e-04 9.080600e-05 -4.952186e-11) (0.000000e+00 0.000000e+00 0.000000e+00)) ((3.426412e-08 2.704013e-08 8.403976e-03) (8.962930e-10 -1.272621e-09 -1.798218e-05) (0.000000e+00 0.000000e+00 0.000000e+00))	((5.067198e-03 -8.780846e-02 5.149610e-11) (4.709857e-04 8.922465e-05 -9.780988e-11) (0.000000e+00 0.000000e+00 0.000000e+00)) ((2.443754e-07 2.701305e-08 1.155773e-02) (1.739792e-09 -1.016861e-08 -1.352743e-05) (0.000000e+00 0.000000e+00 0.000000e+00))	((6.187870e-03 -1.276009e-01 5.578687e-11) (6.113983e-04 8.879906e-05 -7.602632e-11) (0.000000e+00 0.000000e+00 0.000000e+00)) ((4.383525e-07 5.533153e-08 1.318344e-02) (1.738270e-09 -8.672445e-09 -7.485219e-06) (0.000000e+00 0.000000e+00 0.000000e+00))	((6.569923e-03 -1.704717e-01 5.426487e-11) (6.934176e-04 8.848739e-05 -2.493576e-11) (0.000000e+00 0.000000e+00 0.000000e+00)) ((-1.453046e-07 4.137272e-08 1.285201e-02) (1.435310e-09 8.148679e-09 -1.325330e-06) (0.000000e+00 0.000000e+00 0.000000e+00))	((6.087287e-03 -2.158007e-01 7.980909e-11) (7.150962e-04 8.978287e-05 7.735607e-12) (0.000000e+00 0.000000e+00 0.000000e+00)) ((4.072606e-07 1.914059e-08 1.029554e-02) (2.448882e-09 2.849376e-08 6.394255e-06) (0.000000e+00 0.000000e+00 0.000000e+00))	((4.488813e-03 -2.636291e-01 -9.620407e-11) (7.531968e-04 9.378417e-05 2.008607e-11) (0.000000e+00 0.000000e+00 0.000000e+00)) ((-6.956620e-07 8.805582e-08 5.233495e-03) (4.074593e-09 6.429577e-08 1.744748e-05) (0.000000e+00 0.000000e+00 0.000000e+00))	((1.984299e-03 -3.138003e-01 1.717024e-10) (8.244909e-04 9.842515e-05 1.825822e-10) (0.000000e+00 0.000000e+00 0.000000e+00)) ((-1.218522e-06 1.850439e-07 -2.567433e-03) (7.118145e-09 1.444810e-07 2.762128e-05) (0.000000e+00 0.000000e+00 0.000000e+00))	((-1.096499e-03 -3.644941e-01 -1.400577e-10) (8.962910e-04 1.011411e-04 2.082763e-10) (0.000000e+00 0.000000e+00 0.000000e+00)) ((-1.486966e-06 2.007701e-07 -1.297876e-02) (1.011758e-08 1.793275e-07 3.609861e-05) (0.000000e+00 0.000000e+00 0.000000e+00))	((-4.830777e-03 -4.164511e-01 -1.420901e-10) (9.669154e-04 1.020894e-04 2.087897e-10) (0.000000e+00 0.000000e+00 0.000000e+00)) ((-1.610625e-06 2.106029e-07 -2.623951e-02) (9.151103e-09 1.731268e-07 4.235763e-05) (0.000000e+00 0.000000e+00 0.000000e+00))	((-9.238200e-03 -4.697252e-01 -1.544880e-10) (1.027554e-03 9.827102e-05 2.552061e-10) (0.000000e+00 0.000000e+00 0.000000e+00)) ((-1.038450e-06 1.154995e-07 -4.253936e-02) (2.939682e-08 1.839346e-07 4.590664e-05) (0.000000e+00 0.000000e+00 0.000000e+00))	((-1.422086e-02 -5.217337e-01 -2.037631e-10) (1.070284e-03 9.420314e-05 2.220429e-10) (0.000000e+00 0.000000e+00 0.000000e+00)) ((-2.003057e-06 3.017069e-07 -6.108597e-02) (9.035752e-09 1.478472e-07 4.789759e-05) (0.000000e+00 0.000000e+00 0.000000e+00))	((-1.984309e-02 -5.742133e-01 -2.185243e-10) (1.110422e-03 7.932546e-05 3.415105e-11) (0.000000e+00 0.000000e+00 0.000000e+00)) ((2.353122e-06 -5.840064e-07 -8.246260e-02) (2.502242e-08 1.870430e-07 4.413930e-05) (0.000000e+00 0.000000e+00 0.000000e+00))	((-2.593872e-02 -6.262083e-01 -1.948786e-10) (1.143507e-03 6.510331e-05 3.771645e-11) (0.000000e+00 0.000000e+00 0.000000e+00)) ((3.688814e-06 -8.547267e-07 -1.063146e-01) (2.631768e-08 1.924859e-07 3.918470e-05) (0.000000e+00 0.000000e+00 0.000000e+00))	((-3.262035e-02 -6.788153e-01 -1.870495e-10) (1.182129e-03 4.599622e-05 2.742686e-11) (0.000000e+00 0.000000e+00 0.000000e+00)) ((4.719907e-06 -1.084409e-06 -1.331712e-01) (3.379383e-08 2.085011e-07 3.044752e-05) (0.000000e+00 0.000000e+00 0.000000e+00))	((-3.984470e-02 -7.332562e-01 -1.555981e-10) (1.225443e-03 2.270349e-05 -3.610081e-11) (0.000000e+00 0.000000e+00 0.000000e+00)) ((2.589612e-06 -4.934326e-07 -1.638079e-01) (3.882858e-08 2.459762e-07 1.815254e-05) (0.000000e+00 0.000000e+00 0.000000e+00))	((-4.714117e-02 -7.918327e-01 -1.222184e-10) (1.275794e-03 -6.645368e-06 -3.308246e-11) (0.000000e+00 0.000000e+00 0.000000e+00)) ((1.393790e-06 -1.539980e-07 -1.998046e-01) (3.571991e-08 2.300422e-07 1.428915e-06) (0.000000e+00 0.000000e+00 0.000000e+00))	((-5.501028e-02 -8.619098e-01 1.408953e-10) (1.358913e-03 -4.773555e-05 -1.797925e-11) (0.000000e+00 0.000000e+00 0.000000e+00)) ((1.725038e-06 -2.666391e-07 -2.464753e-01) (2.857188e-08 2.118148e-07 -2.243224e-05) (0.000000e+00 0.000000e+00 0.000000e+00))	((-6.007724e-02 -9.604613e-01 -2.198982e-09) (1.583339e-03 -1.060920e-04 -3.085923e-11) (0.000000e+00 0.000000e+00 0.000000e+00)) ((3.587420e-06 -1.255528e-06 -3.169155e-01) (3.008594e-08 2.118335e-07 -5.125189e-05) (0.000000e+00 0.000000e+00 0.000000e+00))
1.601362e-02	((6.859778e-04 -3.900336e-03 8.997929e-12) (1.491593e-04 9.449397e-05 -1.764963e-12) (0.000000e+00 0.000000e+00 0.000000e+00)) ((1.043160e-08 1.001926e-08 8.297854e-04) (-3.520718e-11 4.285788e-10 -2.464537e-05) (0.000000e+00 0.000000e+00 0.000000e+00))	((1.928754e-03 -2.362271e-02 5.027161e-12) (2.450089e-04 9.441621e-05 3.682493e-12) (0.000000e+00 0.000000e+00 0.000000e+00)) ((-2.167961e-08 1.386105e-08 4.460097e-03) (9.334415e-10 -3.478263e-09 -2.240544e-05) (0.000000e+00 0.000000e+00 0.000000e+00))	((3.535003e-03 -5.243482e-02 -7.578507e-11) (3.367126e-04 9.058870e-05 -4.925470e-11) (0.000000e+00 0.000000e+00 0.000000e+00)) ((-2.183022e-09 2.689570e-08 8.413415e-03) (8.892527e-10 -1.249522e-09 -1.789910e-05) (0.000000e+00 0.000000e+00 0.000000e+00))	((5.123377e-03 -8.825120e-02 5.109876e-11) (4.712713e-04 8.906822e-05 -9.856980e-11) (0.000000e+00 0.000000e+00 0.000000e+00)) ((-2.898965e-09 2.026645e-08 1.159212e-02) (1.815390e-09 -1.065745e-08 -1.347885e-05) (0.000000e+00 0.000000e+00 0.000000e+00))	((6.213447e-03 -1.276630e-01 5.373207e-11) (6.112354e-04 8.864330e-05 -7.118860e-11) (0.000000e+00 0.000000e+00 0.000000e+00)) ((-8.914620e-08 9.753542e-09 1.319403e-02) (1.707570e-09 -8.271455e-09 -7.409857e-06) (0.000000e+00 0.000000e+00 0.000000e+00))	((6.604430e-03 -1.705491e-01 5.334325e-11) (6.931994e-04 8.834943e-05 -2.437536e-11) (0.000000e+00 0.000000e+00 0.000000e+00)) ((-3.246392e-07 -1.696342e-09 1.286253e-02) (1.410612e-09 8.186762e-09 -1.256996e-06) (0.000000e+00 0.000000e+00 0.000000e+00))	((6.131541e-03 -2.158873e-01 7.974419e-11) (7.148405e-04 8.964760e-05 7.635334e-12) (0.000000e+00 0.000000e+00 0.000000e+00)) ((1.925653e-07 -2.357817e-08 1.030555e-02) (2.415488e-09 2.837098e-08 6.453570e-06) (0.000000e+00 0.000000e+00 0.000000e+00))	((4.543435e-03 -2.637236e-01 -9.600129e-11) (7.529041e-04 9.365518e-05 2.078248e-11) (0.000000e+00 0.000000e+00 0.000000e+00)) ((-8.849905e-07 4.380427e-08 5.242655e-03) (4.027685e-09 6.442774e-08 1.749981e-05) (0.000000e+00 0.000000e+00 0.000000e+00))	((2.049982e-03 -3.139012e-01 1.717681e-10) (8.242457e-04 9.830365e-05 1.845938e-10) (0.000000e+00 0.000000e+00 0.000000e+00)) ((-1.388790e-06 1.377784e-07 -2.559210e-03) (7.059412e-09 1.442227e-07 2.766000e-05) (0.000000e+00 0.000000e+00 0.000000e+00))	((-1.019244e-03 -3.645972e-01 -1.402904e-10) (8.961146e-04 1.010173e-04 2.113369e-10) (0.000000e+00 0.000000e+00 0.000000e+00)) ((-1.644610e-06 1.519426e-07 -1.297088e-02) (1.008527e-08 1.791316e-07 3.612866e-05) (0.000000e+00 0.000000e+00 0.000000e+00))	((-4.741040e-03 -4.165515e-01 -1.423345e-10) (9.667757e-04 1.019998e-04 2.117393e-10) (0.000000e+00 0.000000e+00 0.000000e+00)) ((-1.762885e-06 1.605656e-07 -2.623079e-02) (9.129068e-09 1.729138e-07 4.238739e-05) (0.000000e+00 0.000000e+00 0.000000e+00))	((-9.134921e-03 -4.698169e-01 -1.541494e-10) (1.027479e-03 9.822526e-05 2.582067e-10) (0.000000e+00 0.000000e+00 0.000000e+00)) ((-1.199165e-06 6.294112e-08 -4.252776e-02) (2.942378e-08 1.837622e-07 4.594383e-05) (0.000000e+00 0.000000e+00 0.000000e+00))	((-1.410330e-02 -5.218119e-01 -2.061698e-10) (1.070268e-03 9.421684e-05 2.246646e-10) (0.000000e+00 0.000000e+00 0.000000e+00)) ((-2.110070e-06 2.414101e-07 -6.106927e-02) (9.081550e-09 1.476387e-07 4.795124e-05) (0.000000e+00 0.000000e+00 0.000000e+00))	((-1.971053e-02 -5.742766e-01 -2.200460e-10) (1.110480e-03 7.943333e-05 3.505394e-11) (0.000000e+00 0.000000e+00 0.000000e+00)) ((2.218893e-06 -6.375369e-07 -8.243941e-02) (2.502878e-08 1.868153e-07 4.422748e-05) (0.000000e+00 0.000000e+00 0.000000e+00))	((-2.579029e-02 -6.262546e-01 -1.968221e-10) (1.143620e-03 6.528516e-05 3.860642e-11) (0.000000e+00 0.000000e+00 0.000000e+00)) ((3.544697e-06 -9.061400e-07 -1.062830e-01) (2.630648e-08 1.922708e-07 3.930410e-05) (0.000000e+00 0.000000e+00 0.000000e+00))	((-3.245432e-02 -6.788409e-01 -1.888551e-10) (1.182313e-03 4.625681e-05 2.835222e-11) (0.000000e+00 0.000000e+00 0.000000e+00)) ((4.575705e-06 -1.134708e-06 -1.331284e-01) (3.375780e-08 2.081384e-07 3.060504e-05) (0.000000e+00 0.000000e+00 0.000000e+00))	((-3.965876e-02 -7.332534e-01 -1.588398e-10) (1.225700e-03 2.304020e-05 -3.533849e-11) (0.000000e+00 0.000000e+00 0.000000e+00)) ((2.453794e-06 -5.464539e-07 -1.637481e-01) (3.877788e-08 2.457905e-07 1.835155e-05) (0.000000e+00 0.000000e+00 0.000000e+00))	((-4.693276e-02 -7.917902e-01 -1.247755e-10) (1.276165e-03 -6.240128e-06 -3.189294e-11) (0.000000e+00 0.000000e+00 0.000000e+00)) ((1.274536e-06 -2.085638e-07 -1.997193e-01) (3.566121e-08 2.297983e-07 1.669853e-06) (0.000000e+00 0.000000e+00 0.000000e+00))	((-5.477190e-02 -8.617773e-01 1.387288e-10) (1.359468e-03 -4.723837e-05 -1.680730e-11) (0.000000e+00 0.000000e+00 0.000000e+00)) ((1.661876e-06 -3.326078e-07 -2.463286e-01) (2.851897e-08 2.115894e-07 -2.213104e-05) (0.000000e+00 0.000000e+00 0.000000e+00))	((-5.979194e-02 -9.598795e-01 -2.243647e-09) (1.583778e-03 -1.054987e-04 -3.068661e-11) (0.000000e+00 0.000000e+00 0.000000e+00)) ((4.388363e-06 -1.339442e-06 -3.164440e-01) (3.001806e-08 2.115278e-07 -5.092348e-05) (0.000000e+00 0.000000e+00 0.000000e+00))
1.610647e-02	((6.832384e-04 -3.916843e-03 9.285132e-12) (1.491281e-04 9.425869e-05 -1.626755e-12) (0.000000e+00 0.000000e+00 0.000000e+00)) ((1.381235e-08 1.513666e-08 8.337598e-04) (-3.324776e-11 4.296577e-10 -2.457069e-05) (0.000000e+00 0.000000e+00 0.000000e+00))	((1.924626e-03 -2.364429e-02 5.288101e-12) (2.449663e-04 9.417884e-05 3.889301e-12) (0.000000e+00 0.000000e+00 0.000000e+00)) ((-7.883594e-10 1.478210e-08 4.465219e-03) (9.354266e-10 -3.471531e-09 -2.232249e-05) (0.000000e+00 0.000000e+00 0.000000e+00))	((3.532939e-03 -5.245451e-02 -7.511607e-11) (3.366366e-04 9.037255e-05 -4.918439e-11) (0.000000e+00 0.000000e+00 0.000000e+00)) ((3.334344e-08 2.665316e-08 8.418489e-03) (8.958323e-10 -1.239474e-09 -1.781637e-05) (0.000000e+00 0.000000e+00 0.000000e+00))	((5.126264e-03 -8.826768e-02 5.264766e-11) (4.711330e-04 8.888161e-05 -9.912522e-11) (0.000000e+00 0.000000e+00 0.000000e+00)) ((2.505281e-07 2.749682e-08 1.159704e-02) (1.865552e-09 -1.093439e-08 -1.339963e-05) (0.000000e+00 0.000000e+00 0.000000e+00))	((6.223598e-03 -1.276790e-01 5.621387e-11) (6.110786e-04 8.848896e-05 -7.578115e-11) (0.000000e+00 0.000000e+00 0.000000e+00)) ((4.877266e-07 5.455956e-08 1.319903e-02) (1.749483e-09 -8.553468e-09 -7.334778e-06) (0.000000e+00 0.000000e+00 0.000000e+00))	((6.623204e-03 -1.705662e-01 5.496313e-11) (6.929844e-04 8.821257e-05 -2.257430e-11) (0.000000e+00 0.000000e+00 0.000000e+00)) ((8.950329e-08 4.322176e-08 1.286765e-02) (1.434836e-09 8.220973e-09 -1.188803e-06) (0.000000e+00 0.000000e+00 0.000000e+00))	((6.160334e-03 -2.158989e-01 8.037867e-11) (7.145866e-04 8.951341e-05 8.468737e-12) (0.000000e+00 0.000000e+00 0.000000e+00)) ((6.238886e-07 2.151924e-08 1.031095e-02) (2.437098e-09 2.827794e-08 6.512851e-06) (0.000000e+00 0.000000e+00 0.000000e+00))	((4.583317e-03 -2.637296e-01 -9.510113e-11) (7.526136e-04 9.352721e-05 2.277318e-11) (0.000000e+00 0.000000e+00 0.000000e+00)) ((-4.484530e-07 8.770377e-08 5.248589e-03) (4.035660e-09 6.457920e-08 1.755219e-05) (0.000000e+00 0.000000e+00 0.000000e+00))	((2.101925e-03 -3.139043e-01 1.721226e-10) (8.240021e-04 9.818348e-05 1.873449e-10) (0.000000e+00 0.000000e+00 0.000000e+00)) ((-8.988028e-07 1.770309e-07 -2.552806e-03) (7.048175e-09 1.440018e-07 2.769888e-05) (0.000000e+00 0.000000e+00 0.000000e+00))	((-9.544351e-04 -3.645917e-01 -1.402662e-10) (8.959396e-04 1.008951e-04 2.152619e-10) (0.000000e+00 0.000000e+00 0.000000e+00)) ((-1.134017e-06 1.891923e-07 -1.296268e-02) (1.009733e-08 1.789728e-07 3.615896e-05) (0.000000e+00 0.000000e+00 0.000000e+00))	((-4.662193e-03 -4.165336e-01 -1.422425e-10) (9.666375e-04 1.019115e-04 2.154279e-10) (0.000000e+00 0.000000e+00 0.000000e+00)) ((-1.229979e-06 1.947167e-07 -2.621936e-02) (9.150997e-09 1.727361e-07 4.241734e-05) (0.000000e+00 0.000000e+00 0.000000e+00))	((-9.040801e-03 -4.697812e-01 -1.545650e-10) (1.027405e-03 9.818051e-05 2.619231e-10) (0.000000e+00 0.000000e+00 0.000000e+00)) ((-6.616350e-07 9.943687e-08 -4.251069e-02) (2.949457e-08 1.836317e-07 4.598115e-05) (0.000000e+00 0.000000e+00 0.000000e+00))	((-1.399308e-02 -5.217537e-01 -2.068510e-10) (1.070253e-03 9.423081e-05 2.282517e-10) (0.000000e+00 0.000000e+00 0.000000e+00)) ((-1.592175e-06 2.801410e-07 -6.104393e-02) (9.168301e-09 1.474749e-07 4.800474e-05) (0.000000e+00 0.000000e+00 0.000000e+00))	((-1.958284e-02 -5.741920e-01 -2.207307e-10) (1.110538e-03 7.954111e-05 3.698704e-11) (0.000000e+00 0.000000e+00 0.000000e+00)) ((2.710995e-06 -5.921025e-07 -8.240289e-02) (2.507559e-08 1.866315e-07 4.431534e-05) (0.000000e+00 0.000000e+00 0.000000e+00))	((-2.564403e-02 -6.261409e-01 -1.971978e-10) (1.143734e-03 6.546635e-05 4.047129e-11) (0.000000e+00 0.000000e+00 0.000000e+00)) ((4.040199e-06 -8.597992e-07 -1.062327e-01) (2.633570e-08 1.921006e-07 3.942293e-05) (0.000000e+00 0.000000e+00 0.000000e+00))	((-3.228734e-02 -6.786932e-01 -1.895090e-10) (1.182498e-03 4.651638e-05 3.037906e-11) (0.000000e+00 0.000000e+00 0.000000e+00)) ((5.057330e-06 -1.084467e-06 -1.330600e-01) (3.376116e-08 2.078205e-07 3.076179e-05) (0.000000e+00 0.000000e+00 0.000000e+00))	((-3.946801e-02 -7.330612e-01 -1.593386e-10) (1.225958e-03 2.337538e-05 -3.341812e-11) (0.000000e+00 0.000000e+00 0.000000e+00)) ((2.919524e-06 -4.926999e-07 -1.636538e-01) (3.876648e-08 2.456504e-07 1.854948e-05) (0.000000e+00 0.000000e+00 0.000000e+00))	((-4.671449e-02 -7.915389e-01 -1.260511e-10) (1.276538e-03 -5.837046e-06 -2.975203e-11) (0.000000e+00 0.000000e+00 0.000000e+00)) ((1.727136e-06 -1.514679e-07 -1.995875e-01) (3.564233e-08 2.295998e-07 1.909268e-06) (0.000000e+00 0.000000e+00 0.000000e+00))	((-5.451483e-02 -8.614095e-01 1.382165e-10) (1.360024e-03 -4.674345e-05 -1.481596e-11) (0.000000e+00 0.000000e+00 0.000000e+00)) ((2.091013e-06 -2.741507e-07 -2.461173e-01) (2.850524e-08 2.114084e-07 -2.183152e-05) (0.000000e+00 0.000000e+00 0.000000e+00))	((-5.947317e-02 -9.590894e-01 -2.353577e-09) (1.584216e-03 -1.049083e-04 -2.763990e-11) (0.000000e+00 0.000000e+00 0.000000e+00)) ((4.478874e-06 -1.316946e-06 -3.159269e-01) (2.998195e-08 2.112478e-07 -5.059722e-05) (0.000000e+00 0.000000e+00 0.000000e+00))
1.619939e-02	((6.980882e-04 -3.932420e-03 8.837584e-12) (1.490969e-04 9.402403e-05 -1.655622e-12) (0.000000e+00 0.000000e+00 0.000000e+00)) ((1.088656e-08 1.094475e-08 8.375419e-04) (-3.060475e-11 4.308134e-10 -2.449619e-05) (0.000000e+00 0.000000e+00 0.000000e+00))	((1.943521e-03 -2.366355e-02 4.767731e-12) (2.449233e-04 9.394204e-05 3.744322e-12) (0.000000e+00 0.000000e+00 0.000000e+00)) ((-1.548242e-08 1.619454e-08 4.469776e-03) (9.343764e-10 -3.457705e-09 -2.223968e-05) (0.000000e+00 0.000000e+00 0.000000e+00))	((3.557461e-03 -5.247144e-02 -7.631483e-11) (3.365598e-04 9.015695e-05 -4.894472e-11) (0.000000e+00 0.000000e+00 0.000000e+00)) ((5.493794e-09 2.907529e-08 8.422812e-03) (8.928073e-10 -1.220420e-09 -1.773374e-05) (0.000000e+00 0.000000e+00 0.000000e+00))	((5.157671e-03 -8.827283e-02 5.114112e-11) (4.710022e-04 8.869598e-05 -9.863766e-11) (0.000000e+00 0.000000e+00 0.000000e+00)) ((1.457237e-08 2.289023e-08 1.160041e-02) (1.820373e-09 -1.058068e-08 -1.332108e-05) (0.000000e+00 0.000000e+00 0.000000e+00))	((6.262449e-03 -1.276672e-01 5.376738e-11) (6.109172e-04 8.833490e-05 -7.046818e-11) (0.000000e+00 0.000000e+00 0.000000e+00)) ((-9.730039e-08 1.246261e-08 1.320170e-02) (1.720381e-09 -8.336267e-09 -7.259583e-06) (0.000000e+00 0.000000e+00 0.000000e+00))	((6.670989e-03 -1.705368e-01 5.333569e-11) (6.927685e-04 8.807633e-05 -1.850738e-11) (0.000000e+00 0.000000e+00 0.000000e+00)) ((-5.141490e-07 2.058047e-09 1.287042e-02) (1.406078e-09 8.265058e-09 -1.120544e-06) (0.000000e+00 0.000000e+00 0.000000e+00))	((6.217963e-03 -2.158531e-01 7.981300e-11) (7.143342e-04 8.937988e-05 1.151056e-11) (0.000000e+00 0.000000e+00 0.000000e+00)) ((-3.104467e-08 -1.929744e-08 1.031465e-02) (2.402264e-09 2.815050e-08 6.572221e-06) (0.000000e+00 0.000000e+00 0.000000e+00))	((4.651752e-03 -2.636673e-01 -9.537381e-11) (7.523250e-04 9.340000e-05 2.656504e-11) (0.000000e+00 0.000000e+00 0.000000e+00)) ((-1.069230e-06 4.493117e-08 5.254059e-03) (3.986148e-09 6.468608e-08 1.760472e-05) (0.000000e+00 0.000000e+00 0.000000e+00))	((2.182003e-03 -3.138249e-01 1.716086e-10) (8.237595e-04 9.806390e-05 1.923912e-10) (0.000000e+00 0.000000e+00 0.000000e+00)) ((-1.497675e-06 1.310686e-07 -2.544576e-03) (6.992040e-09 1.437283e-07 2.773794e-05) (0.000000e+00 0.000000e+00 0.000000e+00))	((-8.621512e-04 -3.644923e-01 -1.411143e-10) (8.957654e-04 1.007735e-04 2.213157e-10) (0.000000e+00 0.000000e+00 0.000000e+00)) ((-1.704802e-06 1.411038e-07 -1.295020e-02) (1.006826e-08 1.787635e-07 3.618950e-05) (0.000000e+00 0.000000e+00 0.000000e+00))	((-4.556788e-03 -4.164105e-01 -1.431598e-10) (9.665000e-04 1.018234e-04 2.214782e-10) (0.000000e+00 0.000000e+00 0.000000e+00)) ((-1.804399e-06 1.476719e-07 -2.620065e-02) (9.133093e-09 1.725122e-07 4.244746e-05) (0.000000e+00 0.000000e+00 0.000000e+00))	((-8.921190e-03 -4.696295e-01 -1.561250e-10) (1.027332e-03 9.813547e-05 2.681087e-10) (0.000000e+00 0.000000e+00 0.000000e+00)) ((-1.223747e-06 4.975064e-08 -4.248293e-02) (2.952630e-08 1.834463e-07 4.601849e-05) (0.000000e+00 0.000000e+00 0.000000e+00))	((-1.385857e-02 -5.215714e-01 -2.086915e-10) (1.070238e-03 9.424364e-05 2.341369e-10) (0.000000e+00 0.000000e+00 0.000000e+00)) ((-2.129136e-06 2.247593e-07 -6.100492e-02) (9.215664e-09 1.472597e-07 4.805796e-05) (0.000000e+00 0.000000e+00 0.000000e+00))	((-1.943271e-02 -5.739786e-01 -2.218150e-10) (1.110597e-03 7.964732e-05 4.136543e-11) (0.000000e+00 0.000000e+00 0.000000e+00)) ((2.151268e-06 -6.430299e-07 -8.235078e-02) (2.508248e-08 1.863957e-07 4.440273e-05) (0.000000e+00 0.000000e+00 0.000000e+00))	((-2.547739e-02 -6.258953e-01 -1.986128e-10) (1.143848e-03 6.564532e-05 4.481661e-11) (0.000000e+00 0.000000e+00 0.000000e+00)) ((3.468717e-06 -9.091815e-07 -1.061652e-01) (2.632533e-08 1.918778e-07 3.954098e-05) (0.000000e+00 0.000000e+00 0.000000e+00))	((-3.210251e-02 -6.784131e-01 -1.906503e-10) (1.182682e-03 4.677338e-05 3.480528e-11) (0.000000e+00 0.000000e+00 0.000000e+00)) ((4.477087e-06 -1.131904e-06 -1.329742e-01) (3.372399e-08 2.074506e-07 3.091756e-05) (0.000000e+00 0.000000e+00 0.000000e+00))	((-3.926266e-02 -7.327402e-01 -1.620271e-10) (1.226215e-03 2.370732e-05 -2.915422e-11) (0.000000e+00 0.000000e+00 0.000000e+00)) ((2.356032e-06 -5.445085e-07 -1.635441e-01) (3.871439e-08 2.454592e-07 1.874604e-05) (0.000000e+00 0.000000e+00 0.000000e+00))	((-4.648593e-02 -7.911694e-01 -1.279950e-10) (1.276910e-03 -5.437848e-06 -2.514288e-11) (0.000000e+00 0.000000e+00 0.000000e+00)) ((1.192324e-06 -2.100969e-07 -1.994470e-01) (3.558243e-08 2.293488e-07 2.146872e-06) (0.000000e+00 0.000000e+00 0.000000e+00))	((-5.425467e-02 -8.609514e-01 1.364117e-10) (1.360578e-03 -4.625252e-05 -1.044375e-11) (0.000000e+00 0.000000e+00 0.000000e+00)) ((1.569328e-06 -3.453945e-07 -2.459162e-01) (2.845162e-08 2.111748e-07 -2.153398e-05) (0.000000e+00 0.000000e+00 0.000000e+00))	((-5.916763e-02 -9.582821e-01 -2.356994e-09) (1.584651e-03 -1.043222e-04 -2.199911e-11) (0.000000e+00 0.000000e+00 0.000000e+00)) ((3.967956e-06 -1.382116e-06 -3.154733e-01) (2.990696e-08 2.109234e-07 -5.027329e-05) (0.000000e+00 0.000000e+00 0.000000e+00))