# Force bins 
# bins       : 20
# start      : -2.699723e-01
# delta      : 5.028747e-02
# direction  : (1.000000e+00 0.000000e+00 0.000000e+00)
# x co-ords  :	-2.196848e-01	-1.693973e-01	-1.191099e-01	-6.882238e-02	-1.853491e-02	3.175257e-02	8.204004e-02	1.323275e-01	1.826150e-01	2.329025e-01	2.831899e-01	3.334774e-01	3.837649e-01	4.340524e-01	4.843398e-01	5.346273e-01	5.849148e-01	6.352023e-01	6.854897e-01	7.357772e-01
# y co-ords  :	-0.000000e+00	-0.000000e+00	-0.000000e+00	-0.000000e+00	-0.000000e+00	0.000000e+00	0.000000e+00	0.000000e+00	0.000000e+00	0.000000e+00	0.000000e+00	0.000000e+00	0.000000e+00	0.000000e+00	0.000000e+00	0.000000e+00	0.000000e+00	0.000000e+00	0.000000e+00	0.000000e+00
# z co-ords  :	-0.000000e+00	-0.000000e+00	-0.000000e+00	-0.000000e+00	-0.000000e+00	0.000000e+00	0.000000e+00	0.000000e+00	0.000000e+00	0.000000e+00	0.000000e+00	0.000000e+00	0.000000e+00	0.000000e+00	0.000000e+00	0.000000e+00	0.000000e+00	0.000000e+00	0.000000e+00	0.000000e+00
# Time       	forces(0)[pressure,viscous,porous]	moments(0)[pressure,viscous,porous]	forces(1)[pressure,viscous,porous]	moments(1)[pressure,viscous,porous]	forces(2)[pressure,viscous,porous]	moments(2)[pressure,viscous,porous]	forces(3)[pressure,viscous,porous]	moments(3)[pressure,viscous,porous]	forces(4)[pressure,viscous,porous]	moments(4)[pressure,viscous,porous]	forces(5)[pressure,viscous,porous]	moments(5)[pressure,viscous,porous]	forces(6)[pressure,viscous,porous]	moments(6)[pressure,viscous,porous]	forces(7)[pressure,viscous,porous]	moments(7)[pressure,viscous,porous]	forces(8)[pressure,viscous,porous]	moments(8)[pressure,viscous,porous]	forces(9)[pressure,viscous,porous]	moments(9)[pressure,viscous,porous]	forces(10)[pressure,viscous,porous]	moments(10)[pressure,viscous,porous]	forces(11)[pressure,viscous,porous]	moments(11)[pressure,viscous,porous]	forces(12)[pressure,viscous,porous]	moments(12)[pressure,viscous,porous]	forces(13)[pressure,viscous,porous]	moments(13)[pressure,viscous,porous]	forces(14)[pressure,viscous,porous]	moments(14)[pressure,viscous,porous]	forces(15)[pressure,viscous,porous]	moments(15)[pressure,viscous,porous]	forces(16)[pressure,viscous,porous]	moments(16)[pressure,viscous,porous]	forces(17)[pressure,viscous,porous]	moments(17)[pressure,viscous,porous]	forces(18)[pressure,viscous,porous]	moments(18)[pressure,viscous,porous]	forces(19)[pressure,viscous,porous]	moments(19)[pressure,viscous,porous]
1.299453e-02	((5.293103e-04 -3.353310e-03 1.012025e-11) (1.502294e-04 1.028094e-04 -2.323325e-12) (0.000000e+00 0.000000e+00 0.000000e+00)) ((2.125255e-08 1.467973e-08 6.982260e-04) (-4.197372e-11 3.763741e-10 -2.725694e-05) (0.000000e+00 0.000000e+00 0.000000e+00))	((1.720786e-03 -2.325513e-02 8.339641e-12) (2.481824e-04 1.025380e-04 4.023582e-12) (0.000000e+00 0.000000e+00 0.000000e+00)) ((1.040830e-08 2.053555e-08 4.349088e-03) (6.632598e-10 -2.573110e-09 -2.517150e-05) (0.000000e+00 0.000000e+00 0.000000e+00))	((3.212572e-03 -5.147042e-02 -6.744134e-11) (3.394047e-04 9.820612e-05 -4.770466e-11) (0.000000e+00 0.000000e+00 0.000000e+00)) ((1.220140e-08 2.655601e-08 8.210790e-03) (7.941386e-10 -1.159537e-09 -2.077361e-05) (0.000000e+00 0.000000e+00 0.000000e+00))	((4.615036e-03 -8.724877e-02 4.941048e-11) (4.753573e-04 9.556943e-05 -1.016320e-10) (0.000000e+00 0.000000e+00 0.000000e+00)) ((1.235992e-07 2.583947e-08 1.139713e-02) (1.447265e-09 -9.598522e-09 -1.614293e-05) (0.000000e+00 0.000000e+00 0.000000e+00))	((5.496071e-03 -1.274194e-01 5.548421e-11) (6.182316e-04 9.409180e-05 -1.881008e-11) (0.000000e+00 0.000000e+00 0.000000e+00)) ((-5.041689e-08 2.327979e-08 1.303384e-02) (1.338104e-09 7.683750e-10 -9.858164e-06) (0.000000e+00 0.000000e+00 0.000000e+00))	((5.612242e-03 -1.701815e-01 5.558192e-11) (7.005406e-04 9.322264e-05 -1.244353e-11) (0.000000e+00 0.000000e+00 0.000000e+00)) ((-2.435633e-07 3.114459e-08 1.270274e-02) (1.261761e-09 1.619657e-08 -3.547905e-06) (0.000000e+00 0.000000e+00 0.000000e+00))	((4.806625e-03 -2.163100e-01 1.909125e-10) (7.247365e-04 9.441322e-05 -4.680550e-12) (0.000000e+00 0.000000e+00 0.000000e+00)) ((-3.454900e-07 2.462545e-08 1.009619e-02) (2.760777e-09 2.622512e-08 4.601575e-06) (0.000000e+00 0.000000e+00 0.000000e+00))	((2.861756e-03 -2.640932e-01 -9.207984e-11) (7.642349e-04 9.821957e-05 -7.817601e-11) (0.000000e+00 0.000000e+00 0.000000e+00)) ((-3.509802e-07 5.112986e-08 5.031310e-03) (6.226832e-09 2.585301e-08 1.588005e-05) (0.000000e+00 0.000000e+00 0.000000e+00))	((-2.553666e-05 -3.145282e-01 1.475956e-10) (8.332515e-04 1.027144e-04 2.930215e-10) (0.000000e+00 0.000000e+00 0.000000e+00)) ((-9.347783e-07 1.931396e-07 -2.811535e-03) (1.057389e-08 1.665937e-07 2.655424e-05) (0.000000e+00 0.000000e+00 0.000000e+00))	((-3.515364e-03 -3.656143e-01 -1.746288e-10) (9.025639e-04 1.054985e-04 3.149123e-10) (0.000000e+00 0.000000e+00 0.000000e+00)) ((-1.643038e-06 2.752528e-07 -1.330579e-02) (1.318584e-08 2.030159e-07 3.535795e-05) (0.000000e+00 0.000000e+00 0.000000e+00))	((-7.697965e-03 -4.181339e-01 -1.754952e-10) (9.719946e-04 1.051006e-04 3.113163e-10) (0.000000e+00 0.000000e+00 0.000000e+00)) ((-1.652253e-06 2.712975e-07 -2.671401e-02) (1.200633e-08 1.979234e-07 4.156610e-05) (0.000000e+00 0.000000e+00 0.000000e+00))	((-1.244025e-02 -4.713111e-01 -1.816429e-10) (1.031003e-03 1.000831e-04 3.449808e-10) (0.000000e+00 0.000000e+00 0.000000e+00)) ((-9.171013e-07 1.459046e-07 -4.297419e-02) (2.992676e-08 2.059009e-07 4.493328e-05) (0.000000e+00 0.000000e+00 0.000000e+00))	((-1.809546e-02 -5.250449e-01 -2.241561e-10) (1.071164e-03 9.324856e-05 3.395703e-10) (0.000000e+00 0.000000e+00 0.000000e+00)) ((-1.564033e-06 2.833986e-07 -6.211940e-02) (8.215837e-09 1.737438e-07 4.611289e-05) (0.000000e+00 0.000000e+00 0.000000e+00))	((-2.405122e-02 -5.775221e-01 -2.407308e-10) (1.108833e-03 7.592866e-05 2.001222e-10) (0.000000e+00 0.000000e+00 0.000000e+00)) ((3.349171e-06 -7.420478e-07 -8.348702e-02) (2.352514e-08 2.135447e-07 4.149926e-05) (0.000000e+00 0.000000e+00 0.000000e+00))	((-3.095924e-02 -6.314926e-01 -2.066302e-10) (1.140295e-03 5.818789e-05 1.990221e-10) (0.000000e+00 0.000000e+00 0.000000e+00)) ((5.259257e-06 -1.144592e-06 -1.082338e-01) (2.712336e-08 2.193894e-07 3.503771e-05) (0.000000e+00 0.000000e+00 0.000000e+00))	((-3.828932e-02 -6.851366e-01 -2.018034e-10) (1.176468e-03 3.630419e-05 1.880821e-10) (0.000000e+00 0.000000e+00 0.000000e+00)) ((6.567502e-06 -1.432594e-06 -1.356434e-01) (3.469891e-08 2.399821e-07 2.493865e-05) (0.000000e+00 0.000000e+00 0.000000e+00))	((-4.625312e-02 -7.409308e-01 -1.505292e-10) (1.217435e-03 1.024302e-05 1.219012e-10) (0.000000e+00 0.000000e+00 0.000000e+00)) ((4.615816e-06 -8.586429e-07 -1.670725e-01) (4.021822e-08 2.724571e-07 1.111741e-05) (0.000000e+00 0.000000e+00 0.000000e+00))	((-5.439204e-02 -8.012159e-01 -1.176294e-10) (1.264019e-03 -2.168147e-05 1.163081e-10) (0.000000e+00 0.000000e+00 0.000000e+00)) ((3.609689e-06 -5.512262e-07 -2.041581e-01) (3.749514e-08 2.580846e-07 -7.208932e-06) (0.000000e+00 0.000000e+00 0.000000e+00))	((-6.341312e-02 -8.745281e-01 1.225380e-10) (1.341004e-03 -6.581069e-05 1.315128e-10) (0.000000e+00 0.000000e+00 0.000000e+00)) ((3.993558e-06 -7.467576e-07 -2.530417e-01) (3.053004e-08 2.396238e-07 -3.311457e-05) (0.000000e+00 0.000000e+00 0.000000e+00))	((-7.011320e-02 -9.853329e-01 -8.609477e-10) (1.568443e-03 -1.272682e-04 1.215473e-10) (0.000000e+00 0.000000e+00 0.000000e+00)) ((4.749866e-06 -1.684830e-06 -3.323475e-01) (3.254280e-08 2.422051e-07 -6.286314e-05) (0.000000e+00 0.000000e+00 0.000000e+00))
1.308915e-02	((5.476071e-04 -3.356813e-03 1.023084e-11) (1.501955e-04 1.025353e-04 -2.327385e-12) (0.000000e+00 0.000000e+00 0.000000e+00)) ((2.197454e-08 1.685939e-08 6.992056e-04) (-4.226515e-11 3.778671e-10 -2.717140e-05) (0.000000e+00 0.000000e+00 0.000000e+00))	((1.742386e-03 -2.324175e-02 8.759328e-12) (2.481404e-04 1.022603e-04 4.110863e-12) (0.000000e+00 0.000000e+00 0.000000e+00)) ((8.528895e-10 2.024480e-08 4.347060e-03) (6.621788e-10 -2.565642e-09 -2.507691e-05) (0.000000e+00 0.000000e+00 0.000000e+00))	((3.238057e-03 -5.142879e-02 -6.672196e-11) (3.393268e-04 9.795464e-05 -4.738290e-11) (0.000000e+00 0.000000e+00 0.000000e+00)) ((3.986295e-09 2.577340e-08 8.204991e-03) (7.952877e-10 -1.148500e-09 -2.068058e-05) (0.000000e+00 0.000000e+00 0.000000e+00))	((4.646214e-03 -8.717064e-02 4.951181e-11) (4.751996e-04 9.535647e-05 -1.017218e-10) (0.000000e+00 0.000000e+00 0.000000e+00)) ((2.390554e-07 3.878693e-08 1.138813e-02) (1.466891e-09 -9.710997e-09 -1.605733e-05) (0.000000e+00 0.000000e+00 0.000000e+00))	((5.534634e-03 -1.273051e-01 5.492968e-11) (6.180455e-04 9.391407e-05 -2.234071e-11) (0.000000e+00 0.000000e+00 0.000000e+00)) ((3.660753e-07 5.688415e-08 1.302341e-02) (1.346502e-09 6.677238e-10 -9.780398e-06) (0.000000e+00 0.000000e+00 0.000000e+00))	((5.659505e-03 -1.700373e-01 5.258631e-11) (7.002748e-04 9.306382e-05 -1.462285e-11) (0.000000e+00 0.000000e+00 0.000000e+00)) ((4.399750e-07 5.841008e-08 1.269261e-02) (1.262241e-09 1.617331e-08 -3.480279e-06) (0.000000e+00 0.000000e+00 0.000000e+00))	((4.869985e-03 -2.157851e-01 8.126023e-11) (7.231676e-04 9.427330e-05 -1.030534e-10) (0.000000e+00 0.000000e+00 0.000000e+00)) ((5.002666e-07 4.746856e-08 1.011620e-02) (2.779197e-09 2.546403e-08 4.599286e-06) (0.000000e+00 0.000000e+00 0.000000e+00))	((2.933222e-03 -2.638339e-01 -9.402874e-11) (7.638460e-04 9.806845e-05 -8.014410e-11) (0.000000e+00 0.000000e+00 0.000000e+00)) ((5.802093e-07 6.593825e-08 5.030877e-03) (6.243969e-09 2.669171e-08 1.592328e-05) (0.000000e+00 0.000000e+00 0.000000e+00))	((6.092777e-05 -3.142014e-01 1.465014e-10) (8.329437e-04 1.025648e-04 2.886447e-10) (0.000000e+00 0.000000e+00 0.000000e+00)) ((3.096717e-08 2.035513e-07 -2.801366e-03) (1.047809e-08 1.663653e-07 2.657895e-05) (0.000000e+00 0.000000e+00 0.000000e+00))	((-3.412312e-03 -3.652114e-01 -1.733672e-10) (9.023480e-04 1.053480e-04 3.092939e-10) (0.000000e+00 0.000000e+00 0.000000e+00)) ((-5.914182e-07 2.747114e-07 -1.327978e-02) (1.308589e-08 2.028277e-07 3.537111e-05) (0.000000e+00 0.000000e+00 0.000000e+00))	((-7.575797e-03 -4.176390e-01 -1.737017e-10) (9.718208e-04 1.050026e-04 3.063485e-10) (0.000000e+00 0.000000e+00 0.000000e+00)) ((-6.004419e-07 2.693529e-07 -2.666428e-02) (1.191229e-08 1.977164e-07 4.158292e-05) (0.000000e+00 0.000000e+00 0.000000e+00))	((-1.229715e-02 -4.707109e-01 -1.796794e-10) (1.030900e-03 1.000473e-04 3.398729e-10) (0.000000e+00 0.000000e+00 0.000000e+00)) ((1.670999e-07 1.378205e-07 -4.289190e-02) (2.989558e-08 2.057249e-07 4.496286e-05) (0.000000e+00 0.000000e+00 0.000000e+00))	((-1.792833e-02 -5.243256e-01 -2.225449e-10) (1.071139e-03 9.330522e-05 3.336608e-10) (0.000000e+00 0.000000e+00 0.000000e+00)) ((-4.992049e-07 2.783052e-07 -6.199415e-02) (8.284607e-09 1.734968e-07 4.617069e-05) (0.000000e+00 0.000000e+00 0.000000e+00))	((-2.385844e-02 -5.766705e-01 -2.390882e-10) (1.108887e-03 7.609464e-05 1.922045e-10) (0.000000e+00 0.000000e+00 0.000000e+00)) ((4.373915e-06 -7.412489e-07 -8.330731e-02) (2.359376e-08 2.132524e-07 4.159793e-05) (0.000000e+00 0.000000e+00 0.000000e+00))	((-3.073658e-02 -6.304894e-01 -2.057506e-10) (1.140404e-03 5.845631e-05 1.908513e-10) (0.000000e+00 0.000000e+00 0.000000e+00)) ((6.270516e-06 -1.144084e-06 -1.079838e-01) (2.714771e-08 2.190897e-07 3.518032e-05) (0.000000e+00 0.000000e+00 0.000000e+00))	((-3.803295e-02 -6.839602e-01 -2.002617e-10) (1.176662e-03 3.667208e-05 1.803118e-10) (0.000000e+00 0.000000e+00 0.000000e+00)) ((7.519014e-06 -1.429528e-06 -1.353040e-01) (3.474058e-08 2.395484e-07 2.513052e-05) (0.000000e+00 0.000000e+00 0.000000e+00))	((-4.595651e-02 -7.395399e-01 -1.495041e-10) (1.217706e-03 1.071140e-05 1.145110e-10) (0.000000e+00 0.000000e+00 0.000000e+00)) ((5.565744e-06 -8.551477e-07 -1.666110e-01) (4.024448e-08 2.721644e-07 1.136514e-05) (0.000000e+00 0.000000e+00 0.000000e+00))	((-5.404732e-02 -7.995425e-01 -1.134559e-10) (1.264416e-03 -2.111651e-05 1.089777e-10) (0.000000e+00 0.000000e+00 0.000000e+00)) ((4.553278e-06 -5.536733e-07 -2.035216e-01) (3.750322e-08 2.577501e-07 -6.900492e-06) (0.000000e+00 0.000000e+00 0.000000e+00))	((-6.300120e-02 -8.724184e-01 1.356023e-10) (1.341607e-03 -6.514307e-05 1.242303e-10) (0.000000e+00 0.000000e+00 0.000000e+00)) ((5.025742e-06 -7.597739e-07 -2.521126e-01) (3.052172e-08 2.392870e-07 -3.273558e-05) (0.000000e+00 0.000000e+00 0.000000e+00))	((-6.961375e-02 -9.822239e-01 -1.415838e-09) (1.568971e-03 -1.265012e-04 1.126417e-10) (0.000000e+00 0.000000e+00 0.000000e+00)) ((6.659806e-06 -1.747964e-06 -3.307000e-01) (3.251811e-08 2.417794e-07 -6.245399e-05) (0.000000e+00 0.000000e+00 0.000000e+00))
1.318357e-02	((5.656560e-04 -3.362888e-03 1.029582e-11) (1.501619e-04 1.022632e-04 -2.246633e-12) (0.000000e+00 0.000000e+00 0.000000e+00)) ((1.955748e-08 1.518457e-08 7.007985e-04) (-4.251188e-11 3.794602e-10 -2.708643e-05) (0.000000e+00 0.000000e+00 0.000000e+00))	((1.763279e-03 -2.323402e-02 8.674659e-12) (2.480992e-04 1.019848e-04 4.228504e-12) (0.000000e+00 0.000000e+00 0.000000e+00)) ((3.667472e-09 1.947025e-08 4.346216e-03) (6.628104e-10 -2.564550e-09 -2.498300e-05) (0.000000e+00 0.000000e+00 0.000000e+00))	((3.263248e-03 -5.139701e-02 -6.679931e-11) (3.392493e-04 9.770517e-05 -4.722592e-11) (0.000000e+00 0.000000e+00 0.000000e+00)) ((-1.729761e-09 2.409339e-08 8.200926e-03) (7.969743e-10 -1.143174e-09 -2.058819e-05) (0.000000e+00 0.000000e+00 0.000000e+00))	((4.677242e-03 -8.710247e-02 4.980584e-11) (4.750484e-04 9.514542e-05 -9.977750e-11) (0.000000e+00 0.000000e+00 0.000000e+00)) ((1.142174e-07 2.299369e-08 1.138092e-02) (1.449109e-09 -9.388490e-09 -1.597275e-05) (0.000000e+00 0.000000e+00 0.000000e+00))	((5.572812e-03 -1.271783e-01 5.548647e-11) (6.178485e-04 9.373797e-05 -2.280860e-11) (0.000000e+00 0.000000e+00 0.000000e+00)) ((-1.190898e-07 1.948623e-08 1.301389e-02) (1.340353e-09 6.720589e-10 -9.703842e-06) (0.000000e+00 0.000000e+00 0.000000e+00))	((5.706900e-03 -1.698319e-01 5.631828e-11) (6.999968e-04 9.290645e-05 -1.500712e-11) (0.000000e+00 0.000000e+00 0.000000e+00)) ((-3.062490e-07 2.492837e-08 1.268363e-02) (1.254926e-09 1.608441e-08 -3.413417e-06) (0.000000e+00 0.000000e+00 0.000000e+00))	((4.928924e-03 -2.154787e-01 8.454955e-11) (7.231044e-04 9.412959e-05 -2.426419e-11) (0.000000e+00 0.000000e+00 0.000000e+00)) ((-2.028869e-07 1.246594e-08 1.011392e-02) (2.662061e-09 2.510455e-08 4.668692e-06) (0.000000e+00 0.000000e+00 0.000000e+00))	((3.004648e-03 -2.634975e-01 -9.130585e-11) (7.634576e-04 9.791843e-05 -7.621614e-11) (0.000000e+00 0.000000e+00 0.000000e+00)) ((-1.321926e-07 3.263332e-08 5.032686e-03) (6.261138e-09 2.753316e-08 1.596624e-05) (0.000000e+00 0.000000e+00 0.000000e+00))	((1.472781e-04 -3.137943e-01 1.490377e-10) (8.326369e-04 1.024171e-04 2.904785e-10) (0.000000e+00 0.000000e+00 0.000000e+00)) ((-6.943675e-07 1.701568e-07 -2.788429e-03) (1.043272e-08 1.660945e-07 2.660368e-05) (0.000000e+00 0.000000e+00 0.000000e+00))	((-3.309377e-03 -3.647254e-01 -1.699567e-10) (9.021328e-04 1.051992e-04 3.101569e-10) (0.000000e+00 0.000000e+00 0.000000e+00)) ((-1.258419e-06 2.331328e-07 -1.325044e-02) (1.304326e-08 2.026043e-07 3.538432e-05) (0.000000e+00 0.000000e+00 0.000000e+00))	((-7.453940e-03 -4.170606e-01 -1.701439e-10) (9.716473e-04 1.049053e-04 3.075682e-10) (0.000000e+00 0.000000e+00 0.000000e+00)) ((-1.268792e-06 2.275251e-07 -2.661111e-02) (1.187677e-08 1.974703e-07 4.159958e-05) (0.000000e+00 0.000000e+00 0.000000e+00))	((-1.215474e-02 -4.700285e-01 -1.759052e-10) (1.030797e-03 1.000111e-04 3.412428e-10) (0.000000e+00 0.000000e+00 0.000000e+00)) ((-4.808006e-07 9.231811e-08 -4.280656e-02) (2.992469e-08 2.055101e-07 4.499197e-05) (0.000000e+00 0.000000e+00 0.000000e+00))	((-1.776232e-02 -5.235265e-01 -2.189384e-10) (1.071113e-03 9.336029e-05 3.340683e-10) (0.000000e+00 0.000000e+00 0.000000e+00)) ((-1.162716e-06 2.355905e-07 -6.186680e-02) (8.412514e-09 1.732105e-07 4.622760e-05) (0.000000e+00 0.000000e+00 0.000000e+00))	((-2.366740e-02 -5.757443e-01 -2.358153e-10) (1.108939e-03 7.625829e-05 1.909063e-10) (0.000000e+00 0.000000e+00 0.000000e+00)) ((3.680703e-06 -7.769989e-07 -8.312756e-02) (2.372063e-08 2.129209e-07 4.169540e-05) (0.000000e+00 0.000000e+00 0.000000e+00))	((-3.051672e-02 -6.294208e-01 -2.026527e-10) (1.140512e-03 5.872141e-05 1.895555e-10) (0.000000e+00 0.000000e+00 0.000000e+00)) ((5.565271e-06 -1.174838e-06 -1.077380e-01) (2.723072e-08 2.187510e-07 3.532126e-05) (0.000000e+00 0.000000e+00 0.000000e+00))	((-3.778132e-02 -6.827341e-01 -1.969653e-10) (1.176854e-03 3.703570e-05 1.793651e-10) (0.000000e+00 0.000000e+00 0.000000e+00)) ((6.830354e-06 -1.463155e-06 -1.349768e-01) (3.484169e-08 2.390749e-07 2.532020e-05) (0.000000e+00 0.000000e+00 0.000000e+00))	((-4.566766e-02 -7.381244e-01 -1.483753e-10) (1.217975e-03 1.117437e-05 1.137452e-10) (0.000000e+00 0.000000e+00 0.000000e+00)) ((4.815600e-06 -8.852088e-07 -1.661762e-01) (4.032853e-08 2.718337e-07 1.161003e-05) (0.000000e+00 0.000000e+00 0.000000e+00))	((-5.371534e-02 -7.978902e-01 -1.147015e-10) (1.264808e-03 -2.055812e-05 1.081295e-10) (0.000000e+00 0.000000e+00 0.000000e+00)) ((3.671751e-06 -5.677973e-07 -2.029398e-01) (3.756963e-08 2.573768e-07 -6.595714e-06) (0.000000e+00 0.000000e+00 0.000000e+00))	((-6.261121e-02 -8.704080e-01 1.309967e-10) (1.342205e-03 -6.448250e-05 1.228199e-10) (0.000000e+00 0.000000e+00 0.000000e+00)) ((3.846548e-06 -7.354324e-07 -2.512903e-01) (3.057223e-08 2.389110e-07 -3.236077e-05) (0.000000e+00 0.000000e+00 0.000000e+00))	((-6.915332e-02 -9.793002e-01 -2.102802e-09) (1.569486e-03 -1.257388e-04 1.118871e-10) (0.000000e+00 0.000000e+00 0.000000e+00)) ((4.500853e-06 -1.648908e-06 -3.292212e-01) (3.253344e-08 2.413088e-07 -6.204749e-05) (0.000000e+00 0.000000e+00 0.000000e+00))
1.327781e-02	((5.474558e-04 -3.383275e-03 9.794331e-12) (1.501288e-04 1.019922e-04 -2.284288e-12) (0.000000e+00 0.000000e+00 0.000000e+00)) ((2.601040e-08 2.805682e-08 7.056187e-04) (-3.643642e-11 3.808313e-10 -2.700180e-05) (0.000000e+00 0.000000e+00 0.000000e+00))	((1.738764e-03 -2.327047e-02 8.015389e-12) (2.480580e-04 1.017104e-04 4.204961e-12) (0.000000e+00 0.000000e+00 0.000000e+00)) ((2.218745e-09 3.067230e-08 4.354320e-03) (6.675880e-10 -2.556240e-09 -2.488939e-05) (0.000000e+00 0.000000e+00 0.000000e+00))	((3.238256e-03 -5.144586e-02 -6.771544e-11) (3.391725e-04 9.745634e-05 -4.694446e-11) (0.000000e+00 0.000000e+00 0.000000e+00)) ((-4.666792e-09 3.416118e-08 8.211045e-03) (8.028544e-10 -1.130919e-09 -2.049599e-05) (0.000000e+00 0.000000e+00 0.000000e+00))	((4.655918e-03 -8.716526e-02 4.946578e-11) (4.748931e-04 9.493363e-05 -9.964192e-11) (0.000000e+00 0.000000e+00 0.000000e+00)) ((2.511740e-07 5.024630e-08 1.139250e-02) (1.475247e-09 -9.523016e-09 -1.588759e-05) (0.000000e+00 0.000000e+00 0.000000e+00))	((5.558052e-03 -1.272648e-01 5.496640e-11) (6.176654e-04 9.356102e-05 -2.848434e-11) (0.000000e+00 0.000000e+00 0.000000e+00)) ((4.818642e-07 6.702176e-08 1.302653e-02) (1.356440e-09 6.697845e-10 -9.626062e-06) (0.000000e+00 0.000000e+00 0.000000e+00))	((5.700372e-03 -1.699551e-01 5.208009e-11) (6.997387e-04 9.274813e-05 -2.029529e-11) (0.000000e+00 0.000000e+00 0.000000e+00)) ((6.236961e-07 6.729129e-08 1.269607e-02) (1.268114e-09 1.599209e-08 -3.345664e-06) (0.000000e+00 0.000000e+00 0.000000e+00))	((4.932656e-03 -2.156233e-01 8.068098e-11) (7.227715e-04 9.397428e-05 -3.018037e-11) (0.000000e+00 0.000000e+00 0.000000e+00)) ((9.377212e-07 4.980095e-08 1.012511e-02) (2.672158e-09 2.469581e-08 4.724888e-06) (0.000000e+00 0.000000e+00 0.000000e+00))	((3.020038e-03 -2.636537e-01 -9.432443e-11) (7.630761e-04 9.776776e-05 -8.115765e-11) (0.000000e+00 0.000000e+00 0.000000e+00)) ((1.029967e-06 6.741956e-08 5.042565e-03) (6.296849e-09 2.833927e-08 1.601043e-05) (0.000000e+00 0.000000e+00 0.000000e+00))	((1.757502e-04 -3.139616e-01 1.466382e-10) (8.323351e-04 1.022690e-04 2.848505e-10) (0.000000e+00 0.000000e+00 0.000000e+00)) ((4.802115e-07 2.023733e-07 -2.780393e-03) (1.041916e-08 1.658224e-07 2.662999e-05) (0.000000e+00 0.000000e+00 0.000000e+00))	((-3.266372e-03 -3.648964e-01 -1.723371e-10) (9.019217e-04 1.050496e-04 3.045806e-10) (0.000000e+00 0.000000e+00 0.000000e+00)) ((-2.916015e-08 2.579892e-07 -1.324324e-02) (1.303819e-08 2.023785e-07 3.539912e-05) (0.000000e+00 0.000000e+00 0.000000e+00))	((-7.394509e-03 -4.172274e-01 -1.726779e-10) (9.714776e-04 1.048061e-04 3.023008e-10) (0.000000e+00 0.000000e+00 0.000000e+00)) ((-2.838207e-08 2.507316e-07 -2.660290e-02) (1.187806e-08 1.972247e-07 4.161757e-05) (0.000000e+00 0.000000e+00 0.000000e+00))	((-1.207770e-02 -4.701867e-01 -1.784179e-10) (1.030697e-03 9.997176e-05 3.362685e-10) (0.000000e+00 0.000000e+00 0.000000e+00)) ((7.664240e-07 1.144892e-07 -4.279567e-02) (2.999294e-08 2.052943e-07 4.502207e-05) (0.000000e+00 0.000000e+00 0.000000e+00))	((-1.766556e-02 -5.236685e-01 -2.220618e-10) (1.071089e-03 9.341088e-05 3.278455e-10) (0.000000e+00 0.000000e+00 0.000000e+00)) ((8.551252e-08 2.574526e-07 -6.185004e-02) (8.579437e-09 1.729214e-07 4.628501e-05) (0.000000e+00 0.000000e+00 0.000000e+00))	((-2.355045e-02 -5.758717e-01 -2.385360e-10) (1.108994e-03 7.641660e-05 1.833037e-10) (0.000000e+00 0.000000e+00 0.000000e+00)) ((4.894629e-06 -7.485036e-07 -8.310457e-02) (2.388633e-08 2.125881e-07 4.179301e-05) (0.000000e+00 0.000000e+00 0.000000e+00))	((-3.037729e-02 -6.295351e-01 -2.064475e-10) (1.140622e-03 5.897993e-05 1.821081e-10) (0.000000e+00 0.000000e+00 0.000000e+00)) ((6.748124e-06 -1.138859e-06 -1.077086e-01) (2.735261e-08 2.184099e-07 3.546181e-05) (0.000000e+00 0.000000e+00 0.000000e+00))	((-3.761867e-02 -6.828481e-01 -2.004642e-10) (1.177048e-03 3.739171e-05 1.721954e-10) (0.000000e+00 0.000000e+00 0.000000e+00)) ((8.063580e-06 -1.433297e-06 -1.349466e-01) (3.497970e-08 2.385964e-07 2.550895e-05) (0.000000e+00 0.000000e+00 0.000000e+00))	((-4.547938e-02 -7.382439e-01 -1.514028e-10) (1.218245e-03 1.162857e-05 1.067145e-10) (0.000000e+00 0.000000e+00 0.000000e+00)) ((6.043169e-06 -8.556484e-07 -1.661480e-01) (4.044909e-08 2.714984e-07 1.185330e-05) (0.000000e+00 0.000000e+00 0.000000e+00))	((-5.349904e-02 -7.980322e-01 -1.139518e-10) (1.265202e-03 -2.000972e-05 1.016015e-10) (0.000000e+00 0.000000e+00 0.000000e+00)) ((4.988374e-06 -5.464962e-07 -2.029242e-01) (3.767295e-08 2.569994e-07 -6.293288e-06) (0.000000e+00 0.000000e+00 0.000000e+00))	((-6.235947e-02 -8.705864e-01 1.396306e-10) (1.342803e-03 -6.383300e-05 1.168732e-10) (0.000000e+00 0.000000e+00 0.000000e+00)) ((5.482833e-06 -7.223936e-07 -2.512965e-01) (3.066179e-08 2.385374e-07 -3.198909e-05) (0.000000e+00 0.000000e+00 0.000000e+00))	((-6.884922e-02 -9.792122e-01 -2.264490e-09) (1.570000e-03 -1.249885e-04 9.936264e-11) (0.000000e+00 0.000000e+00 0.000000e+00)) ((7.790600e-06 -1.638449e-06 -3.290322e-01) (3.261490e-08 2.408642e-07 -6.164490e-05) (0.000000e+00 0.000000e+00 0.000000e+00))
1.337186e-02	((5.539388e-04 -3.403847e-03 1.004371e-11) (1.500962e-04 1.017230e-04 -2.158909e-12) (0.000000e+00 0.000000e+00 0.000000e+00)) ((1.798189e-08 1.155712e-08 7.105208e-04) (-3.885461e-11 3.819711e-10 -2.691765e-05) (0.000000e+00 0.000000e+00 0.000000e+00))	((1.746206e-03 -2.330380e-02 8.069579e-12) (2.480160e-04 1.014375e-04 4.314104e-12) (0.000000e+00 0.000000e+00 0.000000e+00)) ((5.348175e-09 1.653125e-08 4.361742e-03) (6.667052e-10 -2.555325e-09 -2.479618e-05) (0.000000e+00 0.000000e+00 0.000000e+00))	((3.249931e-03 -5.148813e-02 -6.790893e-11) (3.390940e-04 9.720857e-05 -4.686936e-11) (0.000000e+00 0.000000e+00 0.000000e+00)) ((1.774635e-08 2.416335e-08 8.219837e-03) (8.014463e-10 -1.119345e-09 -2.040405e-05) (0.000000e+00 0.000000e+00 0.000000e+00))	((4.673963e-03 -8.721119e-02 4.885329e-11) (4.747412e-04 9.472302e-05 -9.907460e-11) (0.000000e+00 0.000000e+00 0.000000e+00)) ((1.260040e-07 2.273626e-08 1.140176e-02) (1.458716e-09 -9.275135e-09 -1.580299e-05) (0.000000e+00 0.000000e+00 0.000000e+00))	((5.583838e-03 -1.272961e-01 5.446192e-11) (6.174639e-04 9.338478e-05 -2.998916e-11) (0.000000e+00 0.000000e+00 0.000000e+00)) ((2.143730e-08 2.131002e-08 1.303531e-02) (1.344851e-09 7.386538e-10 -9.548976e-06) (0.000000e+00 0.000000e+00 0.000000e+00))	((5.735381e-03 -1.699541e-01 5.588371e-11) (6.994641e-04 9.259061e-05 -2.056618e-11) (0.000000e+00 0.000000e+00 0.000000e+00)) ((-1.675487e-07 2.262994e-08 1.270499e-02) (1.251924e-09 1.590867e-08 -3.277943e-06) (0.000000e+00 0.000000e+00 0.000000e+00))	((4.977746e-03 -2.156167e-01 8.416998e-11) (7.224392e-04 9.381957e-05 -2.961588e-11) (0.000000e+00 0.000000e+00 0.000000e+00)) ((2.343206e-07 -1.513534e-09 1.013434e-02) (2.647547e-09 2.416398e-08 4.781343e-06) (0.000000e+00 0.000000e+00 0.000000e+00))	((3.075983e-03 -2.636454e-01 -9.061206e-11) (7.626966e-04 9.761785e-05 -7.824178e-11) (0.000000e+00 0.000000e+00 0.000000e+00)) ((4.230240e-07 1.099591e-08 5.051932e-03) (6.303353e-09 2.913892e-08 1.605549e-05) (0.000000e+00 0.000000e+00 0.000000e+00))	((2.430960e-04 -3.139606e-01 1.504054e-10) (8.320357e-04 1.021217e-04 2.859239e-10) (0.000000e+00 0.000000e+00 0.000000e+00)) ((-1.281445e-07 1.453835e-07 -2.772152e-03) (1.037907e-08 1.655673e-07 2.665745e-05) (0.000000e+00 0.000000e+00 0.000000e+00))	((-3.186903e-03 -3.649023e-01 -1.683646e-10) (9.017116e-04 1.049005e-04 3.052208e-10) (0.000000e+00 0.000000e+00 0.000000e+00)) ((-6.050089e-07 1.964486e-07 -1.323635e-02) (1.300522e-08 2.021624e-07 3.541521e-05) (0.000000e+00 0.000000e+00 0.000000e+00))	((-7.301604e-03 -4.172358e-01 -1.689089e-10) (9.713085e-04 1.047064e-04 3.031428e-10) (0.000000e+00 0.000000e+00 0.000000e+00)) ((-5.954400e-07 1.875304e-07 -2.659657e-02) (1.184788e-08 1.969979e-07 4.163665e-05) (0.000000e+00 0.000000e+00 0.000000e+00))	((-1.204531e-02 -4.706083e-01 -1.747410e-10) (1.030355e-03 9.978999e-05 3.405865e-10) (0.000000e+00 0.000000e+00 0.000000e+00)) ((1.972273e-07 5.177233e-08 -4.292402e-02) (3.017277e-08 2.050068e-07 4.501540e-05) (0.000000e+00 0.000000e+00 0.000000e+00))	((-1.754339e-02 -5.236789e-01 -2.206008e-10) (1.071065e-03 9.345863e-05 3.279488e-10) (0.000000e+00 0.000000e+00 0.000000e+00)) ((-4.827026e-07 1.939333e-07 -6.184396e-02) (8.708379e-09 1.726524e-07 4.634276e-05) (0.000000e+00 0.000000e+00 0.000000e+00))	((-2.341292e-02 -5.758858e-01 -2.367292e-10) (1.109048e-03 7.657133e-05 1.820461e-10) (0.000000e+00 0.000000e+00 0.000000e+00)) ((4.350736e-06 -8.100001e-07 -8.309964e-02) (2.401367e-08 2.122798e-07 4.189066e-05) (0.000000e+00 0.000000e+00 0.000000e+00))	((-3.022306e-02 -6.295593e-01 -2.058895e-10) (1.140731e-03 5.923378e-05 1.809632e-10) (0.000000e+00 0.000000e+00 0.000000e+00)) ((6.152344e-06 -1.192721e-06 -1.077079e-01) (2.743713e-08 2.180939e-07 3.560191e-05) (0.000000e+00 0.000000e+00 0.000000e+00))	((-3.744730e-02 -6.828943e-01 -1.990843e-10) (1.177241e-03 3.774211e-05 1.712500e-10) (0.000000e+00 0.000000e+00 0.000000e+00)) ((7.452612e-06 -1.487179e-06 -1.349564e-01) (3.507817e-08 2.381377e-07 2.569678e-05) (0.000000e+00 0.000000e+00 0.000000e+00))	((-4.528888e-02 -7.383154e-01 -1.514164e-10) (1.218514e-03 1.207630e-05 1.059414e-10) (0.000000e+00 0.000000e+00 0.000000e+00)) ((5.475625e-06 -9.125911e-07 -1.661711e-01) (4.053045e-08 2.711837e-07 1.209515e-05) (0.000000e+00 0.000000e+00 0.000000e+00))	((-5.328681e-02 -7.981404e-01 -1.172076e-10) (1.265594e-03 -1.946893e-05 1.012776e-10) (0.000000e+00 0.000000e+00 0.000000e+00)) ((4.510063e-06 -6.093120e-07 -2.029685e-01) (3.773732e-08 2.566426e-07 -5.993022e-06) (0.000000e+00 0.000000e+00 0.000000e+00))	((-6.211661e-02 -8.707293e-01 1.316702e-10) (1.343401e-03 -6.319188e-05 1.168959e-10) (0.000000e+00 0.000000e+00 0.000000e+00)) ((5.485833e-06 -8.614809e-07 -2.513618e-01) (3.071291e-08 2.381834e-07 -3.162014e-05) (0.000000e+00 0.000000e+00 0.000000e+00))	((-6.855473e-02 -9.791481e-01 -2.271629e-09) (1.570513e-03 -1.242476e-04 9.333134e-11) (0.000000e+00 0.000000e+00 0.000000e+00)) ((9.044086e-06 -1.971894e-06 -3.289455e-01) (3.267669e-08 2.404486e-07 -6.124571e-05) (0.000000e+00 0.000000e+00 0.000000e+00))