# Forces     
# CofR       : (0.000000e+00 0.000000e+00 0.000000e+00)
# Time       forces(pressure viscous porous) moment(pressure viscous porous)
7.476077e-05	((-5.981443e+01 -5.052804e+02 -9.114695e-07) (4.451275e-02 -2.822867e-03 5.149907e-07) (0.000000e+00 0.000000e+00 0.000000e+00)) ((3.666079e-04 -3.231321e-05 -2.047932e+02) (-3.702143e-07 -6.904026e-08 -2.274842e-03) (0.000000e+00 0.000000e+00 0.000000e+00))
