# Forces     
# CofR       : (0.000000e+00 0.000000e+00 0.000000e+00)
# Time       forces(pressure viscous porous) moment(pressure viscous porous)
1.299453e-02	((-7.011320e-02 -9.853329e-01 -8.609477e-10) (1.568443e-03 -1.272682e-04 1.215473e-10) (0.000000e+00 0.000000e+00 0.000000e+00)) ((4.749866e-06 -1.684830e-06 -3.323475e-01) (3.254280e-08 2.422051e-07 -6.286314e-05) (0.000000e+00 0.000000e+00 0.000000e+00))
1.308915e-02	((-6.961375e-02 -9.822239e-01 -1.415838e-09) (1.568971e-03 -1.265012e-04 1.126417e-10) (0.000000e+00 0.000000e+00 0.000000e+00)) ((6.659806e-06 -1.747964e-06 -3.307000e-01) (3.251811e-08 2.417794e-07 -6.245399e-05) (0.000000e+00 0.000000e+00 0.000000e+00))
1.318357e-02	((-6.915332e-02 -9.793002e-01 -2.102802e-09) (1.569486e-03 -1.257388e-04 1.118871e-10) (0.000000e+00 0.000000e+00 0.000000e+00)) ((4.500853e-06 -1.648908e-06 -3.292212e-01) (3.253344e-08 2.413088e-07 -6.204749e-05) (0.000000e+00 0.000000e+00 0.000000e+00))
1.327781e-02	((-6.884922e-02 -9.792122e-01 -2.264490e-09) (1.570000e-03 -1.249885e-04 9.936264e-11) (0.000000e+00 0.000000e+00 0.000000e+00)) ((7.790600e-06 -1.638449e-06 -3.290322e-01) (3.261490e-08 2.408642e-07 -6.164490e-05) (0.000000e+00 0.000000e+00 0.000000e+00))
1.337186e-02	((-6.855473e-02 -9.791481e-01 -2.271629e-09) (1.570513e-03 -1.242476e-04 9.333134e-11) (0.000000e+00 0.000000e+00 0.000000e+00)) ((9.044086e-06 -1.971894e-06 -3.289455e-01) (3.267669e-08 2.404486e-07 -6.124571e-05) (0.000000e+00 0.000000e+00 0.000000e+00))
1.346576e-02	((-6.828603e-02 -9.792666e-01 -2.177158e-09) (1.571023e-03 -1.235138e-04 8.676878e-11) (0.000000e+00 0.000000e+00 0.000000e+00)) ((1.126473e-05 -2.477765e-06 -3.288112e-01) (3.271733e-08 2.399921e-07 -6.084927e-05) (0.000000e+00 0.000000e+00 0.000000e+00))
1.355951e-02	((-6.799495e-02 -9.788862e-01 -2.253844e-09) (1.571529e-03 -1.227871e-04 8.867636e-11) (0.000000e+00 0.000000e+00 0.000000e+00)) ((9.663687e-06 -2.216318e-06 -3.285355e-01) (3.272393e-08 2.395483e-07 -6.045563e-05) (0.000000e+00 0.000000e+00 0.000000e+00))
1.365311e-02	((-6.771149e-02 -9.787415e-01 -2.225269e-09) (1.572032e-03 -1.220663e-04 7.986666e-11) (0.000000e+00 0.000000e+00 0.000000e+00)) ((1.138812e-05 -2.490283e-06 -3.282957e-01) (3.281406e-08 2.391571e-07 -6.006447e-05) (0.000000e+00 0.000000e+00 0.000000e+00))
1.374660e-02	((-6.773422e-02 -9.770440e-01 -8.253768e-09) (1.570918e-03 -1.211884e-04 -6.756522e-10) (0.000000e+00 0.000000e+00 0.000000e+00)) ((3.152285e-06 -4.730130e-06 -3.270935e-01) (3.139505e-08 2.288753e-07 -5.966177e-05) (0.000000e+00 0.000000e+00 0.000000e+00))
