# Forces     
# CofR       : (0.000000e+00 0.000000e+00 0.000000e+00)
# Time       forces(pressure viscous porous) moment(pressure viscous porous)
1.582813e-02	((-6.039424e-02 -9.613437e-01 -1.994508e-09) (1.582894e-03 -1.066899e-04 -3.011912e-11) (0.000000e+00 0.000000e+00 0.000000e+00)) ((3.705995e-06 -1.170903e-06 -3.174479e-01) (3.012067e-08 2.121153e-07 -5.158253e-05) (0.000000e+00 0.000000e+00 0.000000e+00))
1.592084e-02	((-6.007724e-02 -9.604613e-01 -2.198982e-09) (1.583339e-03 -1.060920e-04 -3.085923e-11) (0.000000e+00 0.000000e+00 0.000000e+00)) ((3.587420e-06 -1.255528e-06 -3.169155e-01) (3.008594e-08 2.118335e-07 -5.125189e-05) (0.000000e+00 0.000000e+00 0.000000e+00))
1.601362e-02	((-5.979194e-02 -9.598795e-01 -2.243647e-09) (1.583778e-03 -1.054987e-04 -3.068661e-11) (0.000000e+00 0.000000e+00 0.000000e+00)) ((4.388363e-06 -1.339442e-06 -3.164440e-01) (3.001806e-08 2.115278e-07 -5.092348e-05) (0.000000e+00 0.000000e+00 0.000000e+00))
1.610647e-02	((-5.947317e-02 -9.590894e-01 -2.353577e-09) (1.584216e-03 -1.049083e-04 -2.763990e-11) (0.000000e+00 0.000000e+00 0.000000e+00)) ((4.478874e-06 -1.316946e-06 -3.159269e-01) (2.998195e-08 2.112478e-07 -5.059722e-05) (0.000000e+00 0.000000e+00 0.000000e+00))
1.619939e-02	((-5.916763e-02 -9.582821e-01 -2.356994e-09) (1.584651e-03 -1.043222e-04 -2.199911e-11) (0.000000e+00 0.000000e+00 0.000000e+00)) ((3.967956e-06 -1.382116e-06 -3.154733e-01) (2.990696e-08 2.109234e-07 -5.027329e-05) (0.000000e+00 0.000000e+00 0.000000e+00))
1.629243e-02	((-5.887860e-02 -9.577988e-01 -2.390475e-09) (1.585085e-03 -1.037404e-04 -2.051091e-11) (0.000000e+00 0.000000e+00 0.000000e+00)) ((4.635065e-06 -1.342969e-06 -3.150919e-01) (2.986932e-08 2.106196e-07 -4.995102e-05) (0.000000e+00 0.000000e+00 0.000000e+00))
1.638554e-02	((-5.853351e-02 -9.567916e-01 -2.396451e-09) (1.585516e-03 -1.031625e-04 -1.860574e-11) (0.000000e+00 0.000000e+00 0.000000e+00)) ((4.417385e-06 -1.379694e-06 -3.145164e-01) (2.979351e-08 2.103014e-07 -4.963155e-05) (0.000000e+00 0.000000e+00 0.000000e+00))
1.647876e-02	((-5.838553e-02 -9.579471e-01 -2.393088e-09) (1.585943e-03 -1.025933e-04 -1.691197e-11) (0.000000e+00 0.000000e+00 0.000000e+00)) ((5.087719e-06 -1.365150e-06 -3.149410e-01) (2.975483e-08 2.099738e-07 -4.931348e-05) (0.000000e+00 0.000000e+00 0.000000e+00))
1.657210e-02	((-5.812427e-02 -9.562034e-01 -3.808424e-09) (1.585905e-03 -1.019826e-04 -7.783777e-11) (0.000000e+00 0.000000e+00 0.000000e+00)) ((1.589538e-06 -1.791369e-06 -3.138948e-01) (2.943217e-08 2.068224e-07 -4.899635e-05) (0.000000e+00 0.000000e+00 0.000000e+00))
