# Force bins 
# bins       : 20
# start      : -2.700384e-01
# delta      : 5.017519e-02
# direction  : (1.000000e+00 0.000000e+00 0.000000e+00)
# x co-ords  :	-2.198632e-01	-1.696881e-01	-1.195129e-01	-6.933768e-02	-1.916249e-02	3.101270e-02	8.118789e-02	1.313631e-01	1.815383e-01	2.317135e-01	2.818886e-01	3.320638e-01	3.822390e-01	4.324142e-01	4.825894e-01	5.327646e-01	5.829398e-01	6.331150e-01	6.832902e-01	7.334653e-01
# y co-ords  :	-0.000000e+00	-0.000000e+00	-0.000000e+00	-0.000000e+00	-0.000000e+00	0.000000e+00	0.000000e+00	0.000000e+00	0.000000e+00	0.000000e+00	0.000000e+00	0.000000e+00	0.000000e+00	0.000000e+00	0.000000e+00	0.000000e+00	0.000000e+00	0.000000e+00	0.000000e+00	0.000000e+00
# z co-ords  :	-0.000000e+00	-0.000000e+00	-0.000000e+00	-0.000000e+00	-0.000000e+00	0.000000e+00	0.000000e+00	0.000000e+00	0.000000e+00	0.000000e+00	0.000000e+00	0.000000e+00	0.000000e+00	0.000000e+00	0.000000e+00	0.000000e+00	0.000000e+00	0.000000e+00	0.000000e+00	0.000000e+00
# Time       	forces(0)[pressure,viscous,porous]	moments(0)[pressure,viscous,porous]	forces(1)[pressure,viscous,porous]	moments(1)[pressure,viscous,porous]	forces(2)[pressure,viscous,porous]	moments(2)[pressure,viscous,porous]	forces(3)[pressure,viscous,porous]	moments(3)[pressure,viscous,porous]	forces(4)[pressure,viscous,porous]	moments(4)[pressure,viscous,porous]	forces(5)[pressure,viscous,porous]	moments(5)[pressure,viscous,porous]	forces(6)[pressure,viscous,porous]	moments(6)[pressure,viscous,porous]	forces(7)[pressure,viscous,porous]	moments(7)[pressure,viscous,porous]	forces(8)[pressure,viscous,porous]	moments(8)[pressure,viscous,porous]	forces(9)[pressure,viscous,porous]	moments(9)[pressure,viscous,porous]	forces(10)[pressure,viscous,porous]	moments(10)[pressure,viscous,porous]	forces(11)[pressure,viscous,porous]	moments(11)[pressure,viscous,porous]	forces(12)[pressure,viscous,porous]	moments(12)[pressure,viscous,porous]	forces(13)[pressure,viscous,porous]	moments(13)[pressure,viscous,porous]	forces(14)[pressure,viscous,porous]	moments(14)[pressure,viscous,porous]	forces(15)[pressure,viscous,porous]	moments(15)[pressure,viscous,porous]	forces(16)[pressure,viscous,porous]	moments(16)[pressure,viscous,porous]	forces(17)[pressure,viscous,porous]	moments(17)[pressure,viscous,porous]	forces(18)[pressure,viscous,porous]	moments(18)[pressure,viscous,porous]	forces(19)[pressure,viscous,porous]	moments(19)[pressure,viscous,porous]
7.476077e-05	((5.084657e+00 7.295471e-01 1.210289e-07) (5.360768e-04 2.255286e-04 1.477708e-08) (0.000000e+00 0.000000e+00 0.000000e+00)) ((-1.477768e-05 -3.629344e-06 -1.994845e-01) (-2.221820e-10 5.604745e-09 -5.970654e-05) (0.000000e+00 0.000000e+00 0.000000e+00))	((6.214048e+00 -9.746705e-02 1.713572e-07) (3.507420e-03 1.189498e-03 2.443906e-09) (0.000000e+00 0.000000e+00 0.000000e+00)) ((-1.239506e-05 -3.515011e-06 -7.688273e-02) (1.597501e-08 1.739038e-08 -3.721023e-04) (0.000000e+00 0.000000e+00 0.000000e+00))	((6.782669e+00 -3.344745e+00 -9.577987e-09) (7.659875e-03 1.964234e-03 3.009654e-08) (0.000000e+00 0.000000e+00 0.000000e+00)) ((1.685849e-05 -9.881742e-06 3.466248e-01) (-8.087886e-08 -2.834469e-10 -6.022147e-04) (0.000000e+00 0.000000e+00 0.000000e+00))	((7.069390e+00 -9.027339e+00 4.286011e-08) (1.202780e-02 2.387130e-03 5.194490e-08) (0.000000e+00 0.000000e+00 0.000000e+00)) ((1.780331e-04 -1.871290e-05 8.408252e-01) (-8.953912e-08 -1.223934e-08 -7.435937e-04) (0.000000e+00 0.000000e+00 0.000000e+00))	((7.099118e+00 -1.746666e+01 4.710740e-08) (1.786015e-02 2.581596e-03 7.242695e-08) (0.000000e+00 0.000000e+00 0.000000e+00)) ((3.000395e-04 -1.664698e-05 1.182303e+00) (-9.531974e-08 -2.219195e-08 -7.832695e-04) (0.000000e+00 0.000000e+00 0.000000e+00))	((6.817354e+00 -2.907255e+01 4.843828e-08) (2.376484e-02 2.454212e-03 2.574173e-08) (0.000000e+00 0.000000e+00 0.000000e+00)) ((3.095154e-04 -1.344143e-05 1.093503e+00) (-9.616148e-08 -3.719918e-09 -7.988219e-04) (0.000000e+00 0.000000e+00 0.000000e+00))	((6.106323e+00 -4.414148e+01 6.387599e-08) (2.950096e-02 2.000338e-03 5.628089e-08) (0.000000e+00 0.000000e+00 0.000000e+00)) ((3.359854e-04 -1.607275e-05 2.462694e-01) (-1.996411e-08 1.837871e-08 -8.299021e-04) (0.000000e+00 0.000000e+00 0.000000e+00))	((4.818953e+00 -6.240522e+01 2.947041e-07) (3.513192e-02 1.208870e-03 7.958859e-08) (0.000000e+00 0.000000e+00 0.000000e+00)) ((2.827197e-04 -1.269888e-05 -1.675390e+00) (5.474819e-08 3.433101e-08 -9.032278e-04) (0.000000e+00 0.000000e+00 0.000000e+00))	((2.914729e+00 -8.456728e+01 2.573514e-07) (4.005052e-02 2.072681e-04 2.294107e-07) (0.000000e+00 0.000000e+00 0.000000e+00)) ((2.405269e-04 -8.352248e-06 -5.106924e+00) (-2.804402e-07 5.880658e-08 -1.059407e-03) (0.000000e+00 0.000000e+00 0.000000e+00))	((4.453531e-01 -1.103665e+02 8.087141e-08) (4.257332e-02 -7.005938e-04 5.164202e-07) (0.000000e+00 0.000000e+00 0.000000e+00)) ((2.565196e-04 -1.152654e-05 -1.038945e+01) (-3.704043e-07 -7.596893e-08 -1.353615e-03) (0.000000e+00 0.000000e+00 0.000000e+00))	((-2.683542e+00 -1.401872e+02 7.379517e-08) (4.293754e-02 -9.753058e-04 5.144085e-07) (0.000000e+00 0.000000e+00 0.000000e+00)) ((2.863924e-04 -1.703483e-05 -1.799419e+01) (-3.701892e-07 -7.057695e-08 -1.419370e-03) (0.000000e+00 0.000000e+00 0.000000e+00))	((-6.600251e+00 -1.744054e+02 4.837150e-08) (4.323924e-02 -1.246926e-03 5.160471e-07) (0.000000e+00 0.000000e+00 0.000000e+00)) ((2.835536e-04 -1.668150e-05 -2.846020e+01) (-3.700765e-07 -7.105036e-08 -1.497851e-03) (0.000000e+00 0.000000e+00 0.000000e+00))	((-1.130491e+01 -2.117081e+02 4.383973e-08) (4.348571e-02 -1.486796e-03 5.157536e-07) (0.000000e+00 0.000000e+00 0.000000e+00)) ((2.841426e-04 -1.749329e-05 -4.177181e+01) (-3.700587e-07 -7.102379e-08 -1.577956e-03) (0.000000e+00 0.000000e+00 0.000000e+00))	((-1.689177e+01 -2.528926e+02 2.169326e-08) (4.369562e-02 -1.692938e-03 5.170058e-07) (0.000000e+00 0.000000e+00 0.000000e+00)) ((2.733052e-04 -1.726124e-05 -5.857544e+01) (-3.699446e-07 -7.160208e-08 -1.655593e-03) (0.000000e+00 0.000000e+00 0.000000e+00))	((-2.348036e+01 -2.976528e+02 -1.851020e-07) (4.388095e-02 -1.902517e-03 5.177732e-07) (0.000000e+00 0.000000e+00 0.000000e+00)) ((2.603516e-04 -1.644463e-05 -7.916241e+01) (-3.697227e-07 -7.185073e-08 -1.745123e-03) (0.000000e+00 0.000000e+00 0.000000e+00))	((-3.077501e+01 -3.442733e+02 -2.675949e-07) (4.403828e-02 -2.062084e-03 5.170731e-07) (0.000000e+00 0.000000e+00 0.000000e+00)) ((2.575819e-04 -1.572584e-05 -1.030464e+02) (-3.695318e-07 -7.136232e-08 -1.819535e-03) (0.000000e+00 0.000000e+00 0.000000e+00))	((-3.861430e+01 -3.910688e+02 -2.079747e-07) (4.416751e-02 -2.271250e-03 5.173502e-07) (0.000000e+00 0.000000e+00 0.000000e+00)) ((2.630407e-04 -1.496556e-05 -1.294520e+02) (-3.694969e-07 -7.146734e-08 -1.929404e-03) (0.000000e+00 0.000000e+00 0.000000e+00))	((-4.708731e+01 -4.379414e+02 -2.621135e-07) (4.430314e-02 -2.429721e-03 5.163466e-07) (0.000000e+00 0.000000e+00 0.000000e+00)) ((2.724358e-04 -1.455100e-05 -1.583664e+02) (-3.693824e-07 -7.077547e-08 -2.018330e-03) (0.000000e+00 0.000000e+00 0.000000e+00))	((-5.494376e+01 -4.794786e+02 -3.955848e-07) (4.441656e-02 -2.596773e-03 5.161371e-07) (0.000000e+00 0.000000e+00 0.000000e+00)) ((2.914560e-04 -1.567863e-05 -1.862096e+02) (-3.693718e-07 -7.065634e-08 -2.121391e-03) (0.000000e+00 0.000000e+00 0.000000e+00))	((-5.981443e+01 -5.052804e+02 -9.114695e-07) (4.451275e-02 -2.822867e-03 5.149907e-07) (0.000000e+00 0.000000e+00 0.000000e+00)) ((3.666079e-04 -3.231321e-05 -2.047932e+02) (-3.702143e-07 -6.904026e-08 -2.274842e-03) (0.000000e+00 0.000000e+00 0.000000e+00))
