# Force bins 
# bins       : 20
# start      : -2.700384e-01
# delta      : 5.017519e-02
# direction  : (1.000000e+00 0.000000e+00 0.000000e+00)
# x co-ords  :	-2.198632e-01	-1.696881e-01	-1.195129e-01	-6.933768e-02	-1.916249e-02	3.101270e-02	8.118789e-02	1.313631e-01	1.815383e-01	2.317135e-01	2.818886e-01	3.320638e-01	3.822390e-01	4.324142e-01	4.825894e-01	5.327646e-01	5.829398e-01	6.331150e-01	6.832902e-01	7.334653e-01
# y co-ords  :	-0.000000e+00	-0.000000e+00	-0.000000e+00	-0.000000e+00	-0.000000e+00	0.000000e+00	0.000000e+00	0.000000e+00	0.000000e+00	0.000000e+00	0.000000e+00	0.000000e+00	0.000000e+00	0.000000e+00	0.000000e+00	0.000000e+00	0.000000e+00	0.000000e+00	0.000000e+00	0.000000e+00
# z co-ords  :	-0.000000e+00	-0.000000e+00	-0.000000e+00	-0.000000e+00	-0.000000e+00	0.000000e+00	0.000000e+00	0.000000e+00	0.000000e+00	0.000000e+00	0.000000e+00	0.000000e+00	0.000000e+00	0.000000e+00	0.000000e+00	0.000000e+00	0.000000e+00	0.000000e+00	0.000000e+00	0.000000e+00
# Time       	forces(0)[pressure,viscous,porous]	moments(0)[pressure,viscous,porous]	forces(1)[pressure,viscous,porous]	moments(1)[pressure,viscous,porous]	forces(2)[pressure,viscous,porous]	moments(2)[pressure,viscous,porous]	forces(3)[pressure,viscous,porous]	moments(3)[pressure,viscous,porous]	forces(4)[pressure,viscous,porous]	moments(4)[pressure,viscous,porous]	forces(5)[pressure,viscous,porous]	moments(5)[pressure,viscous,porous]	forces(6)[pressure,viscous,porous]	moments(6)[pressure,viscous,porous]	forces(7)[pressure,viscous,porous]	moments(7)[pressure,viscous,porous]	forces(8)[pressure,viscous,porous]	moments(8)[pressure,viscous,porous]	forces(9)[pressure,viscous,porous]	moments(9)[pressure,viscous,porous]	forces(10)[pressure,viscous,porous]	moments(10)[pressure,viscous,porous]	forces(11)[pressure,viscous,porous]	moments(11)[pressure,viscous,porous]	forces(12)[pressure,viscous,porous]	moments(12)[pressure,viscous,porous]	forces(13)[pressure,viscous,porous]	moments(13)[pressure,viscous,porous]	forces(14)[pressure,viscous,porous]	moments(14)[pressure,viscous,porous]	forces(15)[pressure,viscous,porous]	moments(15)[pressure,viscous,porous]	forces(16)[pressure,viscous,porous]	moments(16)[pressure,viscous,porous]	forces(17)[pressure,viscous,porous]	moments(17)[pressure,viscous,porous]	forces(18)[pressure,viscous,porous]	moments(18)[pressure,viscous,porous]	forces(19)[pressure,viscous,porous]	moments(19)[pressure,viscous,porous]
1.718213e-04	((-4.829836e-01 3.221948e-01 -2.074871e-08) (1.666438e-04 2.747922e-04 -3.794141e-09) (0.000000e+00 0.000000e+00 0.000000e+00)) ((-7.531597e-06 4.363935e-06 -7.286975e-02) (-9.120494e-10 2.983373e-10 -7.184315e-05) (0.000000e+00 0.000000e+00 0.000000e+00))	((-6.127330e-01 -2.120051e-01 -4.337325e-08) (1.997564e-04 5.895588e-04 -9.881553e-09) (0.000000e+00 0.000000e+00 0.000000e+00)) ((-1.746752e-05 3.330831e-06 2.439959e-02) (-1.027698e-08 -9.722853e-11 -1.298191e-04) (0.000000e+00 0.000000e+00 0.000000e+00))	((-6.426468e-01 -2.086790e+00 -8.963918e-08) (2.269711e-04 8.510844e-04 6.543380e-09) (0.000000e+00 0.000000e+00 0.000000e+00)) ((-2.150214e-05 9.847567e-07 2.794507e-01) (-2.730861e-08 -2.046059e-08 -1.530608e-04) (0.000000e+00 0.000000e+00 0.000000e+00))	((-6.371575e-01 -5.255228e+00 -4.305006e-08) (2.372099e-04 8.687542e-04 -2.054061e-08) (0.000000e+00 0.000000e+00 0.000000e+00)) ((-3.715841e-05 -1.998679e-06 5.593042e-01) (-2.353436e-08 -1.412578e-08 -1.236886e-04) (0.000000e+00 0.000000e+00 0.000000e+00))	((-6.770218e-01 -9.924976e+00 -3.918125e-08) (4.662659e-04 9.640638e-04 7.157824e-08) (0.000000e+00 0.000000e+00 0.000000e+00)) ((-4.756721e-05 -3.112450e-06 7.491015e-01) (-3.081614e-08 4.291796e-09 -8.000991e-05) (0.000000e+00 0.000000e+00 0.000000e+00))	((-8.414354e-01 -1.625824e+01 -3.834238e-08) (6.926263e-04 9.293729e-04 -1.459215e-07) (0.000000e+00 0.000000e+00 0.000000e+00)) ((-1.520971e-04 -3.715512e-07 6.999088e-01) (-4.245202e-08 6.906551e-09 -1.868048e-05) (0.000000e+00 0.000000e+00 0.000000e+00))	((-1.222634e+00 -2.442420e+01 -2.958439e-08) (8.272963e-04 7.609658e-04 -8.018627e-09) (0.000000e+00 0.000000e+00 0.000000e+00)) ((-1.367279e-04 -7.731203e-07 2.401054e-01) (2.306797e-08 3.923601e-08 3.657118e-05) (0.000000e+00 0.000000e+00 0.000000e+00))	((-1.917227e+00 -3.427882e+01 9.985790e-08) (9.616874e-04 4.447681e-04 1.431632e-08) (0.000000e+00 0.000000e+00 0.000000e+00)) ((-1.414589e-04 -1.145986e-06 -7.961803e-01) (7.477333e-08 1.953180e-09 6.353817e-05) (0.000000e+00 0.000000e+00 0.000000e+00))	((-2.951995e+00 -4.612123e+01 7.817043e-08) (9.871111e-04 1.015533e-05 2.819725e-08) (0.000000e+00 0.000000e+00 0.000000e+00)) ((-1.443254e-04 -3.018074e-06 -2.626832e+00) (-2.070108e-07 3.431783e-08 5.036481e-05) (0.000000e+00 0.000000e+00 0.000000e+00))	((-4.302276e+00 -5.978479e+01 -2.054426e-08) (6.298039e-04 -4.633470e-04 8.040149e-08) (0.000000e+00 0.000000e+00 0.000000e+00)) ((-1.074853e-04 -9.553651e-06 -5.419167e+00) (-2.931453e-07 -6.777176e-08 -2.231166e-05) (0.000000e+00 0.000000e+00 0.000000e+00))	((-6.016164e+00 -7.541080e+01 -2.549617e-08) (6.581059e-04 -7.530560e-04 2.400330e-08) (0.000000e+00 0.000000e+00 0.000000e+00)) ((-7.986690e-05 -1.486061e-05 -9.396849e+00) (-2.979383e-07 -5.446347e-08 -9.135578e-05) (0.000000e+00 0.000000e+00 0.000000e+00))	((-8.163637e+00 -9.319588e+01 -4.046002e-08) (6.818043e-04 -1.039530e-03 2.119377e-08) (0.000000e+00 0.000000e+00 0.000000e+00)) ((-1.045636e-04 -9.184293e-06 -1.482743e+01) (-2.965601e-07 -5.307006e-08 -1.752618e-04) (0.000000e+00 0.000000e+00 0.000000e+00))	((-1.074107e+01 -1.124784e+02 -4.394185e-08) (6.942175e-04 -1.293223e-03 -2.524462e-07) (0.000000e+00 0.000000e+00 0.000000e+00)) ((-1.353752e-04 -7.452341e-07 -2.169911e+01) (-3.179477e-07 1.849263e-08 -2.617048e-04) (0.000000e+00 0.000000e+00 0.000000e+00))	((-1.378993e+01 -1.336134e+02 -5.648351e-08) (7.014317e-04 -1.504613e-03 1.027035e-07) (0.000000e+00 0.000000e+00 0.000000e+00)) ((-7.819563e-05 -1.436373e-05 -3.031426e+01) (-2.910589e-07 -8.475863e-08 -3.446856e-04) (0.000000e+00 0.000000e+00 0.000000e+00))	((-1.737694e+01 -1.564634e+02 -1.629062e-07) (7.084059e-04 -1.717268e-03 1.861317e-07) (0.000000e+00 0.000000e+00 0.000000e+00)) ((-7.244613e-06 -3.293384e-05 -4.081844e+01) (-2.887526e-07 -1.098205e-07 -4.401510e-04) (0.000000e+00 0.000000e+00 0.000000e+00))	((-2.132668e+01 -1.800870e+02 -2.095692e-07) (7.104108e-04 -1.875598e-03 -1.317519e-08) (0.000000e+00 0.000000e+00 0.000000e+00)) ((8.698978e-05 -5.893183e-05 -5.291939e+01) (-2.828107e-07 1.492184e-08 -5.191506e-04) (0.000000e+00 0.000000e+00 0.000000e+00))	((-2.555213e+01 -2.036582e+02 -1.779827e-07) (7.076232e-04 -2.087742e-03 -1.283511e-07) (0.000000e+00 0.000000e+00 0.000000e+00)) ((1.571967e-04 -7.874007e-05 -6.622195e+01) (-2.840668e-07 9.618041e-08 -6.366270e-04) (0.000000e+00 0.000000e+00 0.000000e+00))	((-3.012707e+01 -2.272293e+02 -2.147343e-07) (7.126751e-04 -2.239228e-03 -7.410596e-08) (0.000000e+00 0.000000e+00 0.000000e+00)) ((1.401312e-04 -7.368637e-05 -8.077112e+01) (-2.896529e-07 4.926665e-08 -7.285261e-04) (0.000000e+00 0.000000e+00 0.000000e+00))	((-3.433331e+01 -2.475616e+02 -3.130284e-07) (7.238371e-04 -2.399392e-03 -4.364269e-08) (0.000000e+00 0.000000e+00 0.000000e+00)) ((1.150326e-04 -6.606840e-05 -9.441012e+01) (-2.937576e-07 1.958083e-08 -8.340526e-04) (0.000000e+00 0.000000e+00 0.000000e+00))	((-3.703535e+01 -2.606717e+02 9.698866e-08) (7.352440e-04 -2.621994e-03 -5.042382e-08) (0.000000e+00 0.000000e+00 0.000000e+00)) ((1.026819e-04 -6.389557e-05 -1.038625e+02) (-2.925350e-07 2.657178e-08 -9.921039e-04) (0.000000e+00 0.000000e+00 0.000000e+00))
