# Forces     
# CofR       : (0.000000e+00 0.000000e+00 0.000000e+00)
# Time       forces(pressure viscous porous) moment(pressure viscous porous)
1.718213e-04	((-3.703535e+01 -2.606717e+02 9.698866e-08) (7.352440e-04 -2.621994e-03 -5.042382e-08) (0.000000e+00 0.000000e+00 0.000000e+00)) ((1.026819e-04 -6.389557e-05 -1.038625e+02) (-2.925350e-07 2.657178e-08 -9.921039e-04) (0.000000e+00 0.000000e+00 0.000000e+00))
